    3    3  500    1
  0.1706667E+03  0.8000000E-09  0.8000000E-09  0.8000000E-09  0.5000000E-15
  1.000000000000000E-004
  CAR 
 unknown system                          
      8      1      8
 
  0.0000000E+00  0.0000000E+00  0.0000000E+00  0.1000000E+01
    1      -25.119482   1.000000
    2      -12.909309   1.000000
    3       -9.097015   1.000000
    4       -7.025596   1.000000
    5       -1.074670   0.000000
    6        1.126645   0.000000
    7        1.213401   0.000000
    8        1.731230   0.000000
