 vasp.5.4.1 05Feb16 (build Apr 25 2018 11:37:45) complex                        
  
 executed on             LinuxIFC date 2021.03.08  23:09:12
 running on    1 total cores
 distrk:  each k-point on    1 cores,    1 groups
 distr:  one band on NCORES_PER_BAND=   1 cores,    1 groups


--------------------------------------------------------------------------------------------------------


 INCAR:
 POTCAR:    PAW_PBE H 15Jun2001                   
 POTCAR:    PAW_PBE O 08Apr2002                   
 POTCAR:    PAW_PBE H 15Jun2001                   
   VRHFIN =H: ultrasoft test                                                    
   LEXCH  = PE                                                                  
   EATOM  =    12.4884 eV,    0.9179 Ry                                         
                                                                                
   TITEL  = PAW_PBE H 15Jun2001                                                 
   LULTRA =        F    use ultrasoft PP ?                                      
   IUNSCR =        0    unscreen: 0-lin 1-nonlin 2-no                           
   RPACOR =    0.000    partial core radius                                     
   POMASS =    1.000; ZVAL   =    1.000    mass and valenz                      
   RCORE  =    1.100    outmost cutoff radius                                   
   RWIGS  =    0.700; RWIGS  =    0.370    wigner-seitz radius (au A)           
   ENMAX  =  250.000; ENMIN  =  200.000 eV                                      
   RCLOC  =    0.701    cutoff for local pot                                    
   LCOR   =        T    correct aug charges                                     
   LPAW   =        T    paw PP                                                  
   EAUG   =  400.000                                                            
   RMAX   =    1.123    core radius for proj-oper                               
   RAUG   =    1.200    factor for augmentation sphere                          
   RDEP   =    1.112    radius for radial grids                                 
   RDEPT  =    0.926    core radius for aug-charge                              
                                                                                
   Atomic configuration                                                         
    2 entries                                                                   
     n  l   j            E        occ.                                          
     1  0  0.50        -6.4927   1.0000                                         
     2  1  0.50        -3.4015   0.0000                                         
   Description                                                                  
     l       E           TYP  RCUT    TYP  RCUT                                 
     0     -6.4927494     23  1.100                                             
     0      6.8029130     23  1.100                                             
     1     -4.0817478     23  1.100                                             
  local pseudopotential read in
  atomic valenz-charges read in
  non local Contribution for L=           0  read in
    real space projection operators read in
  non local Contribution for L=           0  read in
    real space projection operators read in
  non local Contribution for L=           1  read in
    real space projection operators read in
    PAW grid and wavefunctions read in
 
   number of l-projection  operators is LMAX  =           3
   number of lm-projection operators is LMMAX =           5
 
 POTCAR:    PAW_PBE O 08Apr2002                   
   VRHFIN =O: s2p4                                                              
   LEXCH  = PE                                                                  
   EATOM  =   432.3788 eV,   31.7789 Ry                                         
                                                                                
   TITEL  = PAW_PBE O 08Apr2002                                                 
   LULTRA =        F    use ultrasoft PP ?                                      
   IUNSCR =        1    unscreen: 0-lin 1-nonlin 2-no                           
   RPACOR =    1.200    partial core radius                                     
   POMASS =   16.000; ZVAL   =    6.000    mass and valenz                      
   RCORE  =    1.520    outmost cutoff radius                                   
   RWIGS  =    1.550; RWIGS  =    0.820    wigner-seitz radius (au A)           
   ENMAX  =  400.000; ENMIN  =  300.000 eV                                      
   ICORE  =        2    local potential                                         
   LCOR   =        T    correct aug charges                                     
   LPAW   =        T    paw PP                                                  
   EAUG   =  605.392                                                            
   DEXC   =    0.000                                                            
   RMAX   =    1.553    core radius for proj-oper                               
   RAUG   =    1.300    factor for augmentation sphere                          
   RDEP   =    1.550    radius for radial grids                                 
   RDEPT  =    1.329    core radius for aug-charge                              
                                                                                
   Atomic configuration                                                         
    4 entries                                                                   
     n  l   j            E        occ.                                          
     1  0  0.50      -514.6923   2.0000                                         
     2  0  0.50       -23.9615   2.0000                                         
     2  1  0.50        -9.0305   4.0000                                         
     3  2  1.50        -9.5241   0.0000                                         
   Description                                                                  
     l       E           TYP  RCUT    TYP  RCUT                                 
     0    -23.9615318     23  1.200                                             
     0     -9.5240782     23  1.200                                             
     1     -9.0304911     23  1.520                                             
     1      8.1634956     23  1.520                                             
     2     -9.5240782      7  1.500                                             
  local pseudopotential read in
  partial core-charges read in
  partial kinetic energy density read in
  kinetic energy density of atom read in
  atomic valenz-charges read in
  non local Contribution for L=           0  read in
    real space projection operators read in
  non local Contribution for L=           0  read in
    real space projection operators read in
  non local Contribution for L=           1  read in
    real space projection operators read in
  non local Contribution for L=           1  read in
    real space projection operators read in
    PAW grid and wavefunctions read in
 
   number of l-projection  operators is LMAX  =           4
   number of lm-projection operators is LMMAX =           8
 
  PAW_PBE H 15Jun2001                   :
 energy of atom  1       EATOM=  -12.4884
 kinetic energy error for atom=    0.0098 (will be added to EATOM!!)
  PAW_PBE O 08Apr2002                   :
 energy of atom  2       EATOM= -432.3788
 kinetic energy error for atom=    0.1156 (will be added to EATOM!!)
 
 
 POSCAR:  H  O                                   
  positions in cartesian coordinates
  No initial velocities read in
 exchange correlation table for  LEXCH =        8
   RHO(1)=    0.500       N(1)  =     2000
   RHO(2)=  100.500       N(2)  =     4000

 VTST: version 3.2, (02/03/18)

 CHAIN: initializing optimizer
 
 OPT: Using VASP QUASI-newton optimizer
 CHAIN: Read ICHAIN            0
 
 POSCAR:  H  O                                   
  positions in cartesian coordinates
  No initial velocities read in
 


--------------------------------------------------------------------------------------------------------


 ion  position               nearest neighbor table
   1  0.537  0.404  0.500-   3 0.97
   2  0.537  0.596  0.500-   3 0.97
   3  0.463  0.500  0.500-   1 0.97   2 0.97
 
  LATTYP: Found a simple cubic cell.
 ALAT       =     8.0000000000
  
  Lattice vectors:
  
 A1 = (   8.0000000000,   0.0000000000,   0.0000000000)
 A2 = (   0.0000000000,   8.0000000000,   0.0000000000)
 A3 = (   0.0000000000,   0.0000000000,   8.0000000000)


Analysis of symmetry for initial positions (statically):
=====================================================================
 Subroutine PRICEL returns:
 Original cell was already a primitive cell.
 

 Routine SETGRP: Setting up the symmetry group for a 
 simple cubic supercell.


 Subroutine GETGRP returns: Found  4 space group operations
 (whereof  4 operations were pure point group operations)
 out of a pool of 48 trial point group operations.


The static configuration has the point symmetry C_2v.


Analysis of symmetry for dynamics (positions and initial velocities):
=====================================================================
 Subroutine PRICEL returns:
 Original cell was already a primitive cell.
 

 Routine SETGRP: Setting up the symmetry group for a 
 simple cubic supercell.


 Subroutine GETGRP returns: Found  4 space group operations
 (whereof  4 operations were pure point group operations)
 out of a pool of 48 trial point group operations.


The dynamic configuration has the point symmetry C_2v.


 Subroutine INISYM returns: Found  4 space group operations
 (whereof  4 operations are pure point group operations),
 and found     1 'primitive' translations

 
 
 KPOINTS: KPOINTS created by Atomic Simulation Env

Automatic generation of k-mesh.
Space group operators:
 irot       det(A)        alpha          n_x          n_y          n_z        tau_x        tau_y        tau_z
    1     1.000000     0.000000     1.000000     0.000000     0.000000     0.000000     0.000000     0.000000
    2    -1.000000   180.000000     0.000000     0.000000     1.000000     0.000000     0.000000     0.000000
    3     1.000000   180.000000     1.000000     0.000000     0.000000     0.000000     0.000000     0.000000
    4    -1.000000   180.000000     0.000000     1.000000     0.000000     0.000000     0.000000     0.000000
 
 Subroutine IBZKPT returns following result:
 ===========================================
 
 Found      1 irreducible k-points:
 
 Following reciprocal coordinates:
            Coordinates               Weight
  0.000000  0.000000  0.000000      1.000000
 
 Following cartesian coordinates:
            Coordinates               Weight
  0.000000  0.000000  0.000000      1.000000
 


--------------------------------------------------------------------------------------------------------




 Dimension of arrays:
   k-points           NKPTS =      1   k-points in BZ     NKDIM =      1   number of bands    NBANDS=      8
   number of dos      NEDOS =    301   number of ions     NIONS =      3
   non local maximal  LDIM  =      4   non local SUM 2l+1 LMDIM =      8
   total plane-waves  NPLWV =  64000
   max r-space proj   IRMAX =      1   max aug-charges    IRDMAX=   1821
   dimension x,y,z NGX =    40 NGY =   40 NGZ =   40
   dimension x,y,z NGXF=    80 NGYF=   80 NGZF=   80
   support grid    NGXF=    80 NGYF=   80 NGZF=   80
   ions per type =               2   1
 NGX,Y,Z   is equivalent  to a cutoff of   8.31,  8.31,  8.31 a.u.
 NGXF,Y,Z  is equivalent  to a cutoff of  16.62, 16.62, 16.62 a.u.


 I would recommend the setting:
   dimension x,y,z NGX =    39 NGY =   39 NGZ =   39
 SYSTEM =  unknown system                          
 POSCAR =   H  O                                   

 Startparameter for this run:
   NWRITE =      2    write-flag & timer
   PREC   = normal    normal or accurate (medium, high low for compatibility)
   ISTART =      0    job   : 0-new  1-cont  2-samecut
   ICHARG =      2    charge: 1-file 2-atom 10-const
   ISPIN  =      1    spin polarized calculation?
   LNONCOLLINEAR =      F non collinear calculations
   LSORBIT =      F    spin-orbit coupling
   INIWAV =      1    electr: 0-lowe 1-rand  2-diag
   LASPH  =      F    aspherical Exc in radial PAW
   METAGGA=      F    non-selfconsistent MetaGGA calc.

 Electronic Relaxation 1
   ENCUT  =  400.0 eV  29.40 Ry    5.42 a.u.  13.05 13.05 13.05*2*pi/ulx,y,z
   ENINI  =  400.0     initial cutoff
   ENAUG  =  605.4 eV  augmentation charge cutoff
   NELM   =     60;   NELMIN=  2; NELMDL= -5     # of ELM steps 
   EDIFF  = 0.1E-03   stopping-criterion for ELM
   LREAL  =      F    real-space projection
   NLSPLINE    = F    spline interpolate recip. space projectors
   LCOMPAT=      F    compatible to vasp.4.4
   GGA_COMPAT  = T    GGA compatible to vasp.4.4-vasp.4.6
   LMAXPAW     = -100 max onsite density
   LMAXMIX     =    2 max onsite mixed and CHGCAR
   VOSKOWN=      0    Vosko Wilk Nusair interpolation
   ROPT   =    0.00000   0.00000
 Ionic relaxation
   EDIFFG = -.3E-01   stopping-criterion for IOM
   NSW    =    500    number of steps for IOM
   NBLOCK =      1;   KBLOCK =    500    inner block; outer block 
   IBRION =      1    ionic relax: 0-MD 1-quasi-New 2-CG
   NFREE  =      0    steps in history (QN), initial steepest desc. (CG)
   ISIF   =      2    stress and relaxation
   IWAVPR =     11    prediction:  0-non 1-charg 2-wave 3-comb
   ISYM   =      2    0-nonsym 1-usesym 2-fastsym
   LCORR  =      T    Harris-Foulkes like correction to forces

   POTIM  = 0.5000    time-step for ionic-motion
   TEIN   =    0.0    initial temperature
   TEBEG  =    0.0;   TEEND  =   0.0 temperature during run
   SMASS  =  -3.00    Nose mass-parameter (am)
   estimated Nose-frequenzy (Omega)   =  0.10E-29 period in steps =****** mass=  -0.146E-26a.u.
   SCALEE = 1.0000    scale energy and forces
   NPACO  =    256;   APACO  = 16.0  distance and # of slots for P.C.
   PSTRESS=    0.0 pullay stress

  Mass of Ions in am
   POMASS =   1.00 16.00
  Ionic Valenz
   ZVAL   =   1.00  6.00
  Atomic Wigner-Seitz radii
   RWIGS  =  -1.00 -1.00
  virtual crystal weights 
   VCA    =   1.00  1.00
   NELECT =       8.0000    total number of electrons
   NUPDOWN=      -1.0000    fix difference up-down

 DOS related values:
   EMIN   =  10.00;   EMAX   =-10.00  energy-range for DOS
   EFERMI =   0.00
   ISMEAR =     0;   SIGMA  =   0.20  broadening in eV -4-tet -1-fermi 0-gaus

 Electronic relaxation 2 (details)
   IALGO  =     38    algorithm
   LDIAG  =      T    sub-space diagonalisation (order eigenvalues)
   LSUBROT=      F    optimize rotation matrix (better conditioning)
   TURBO    =      0    0=normal 1=particle mesh
   IRESTART =      0    0=no restart 2=restart with 2 vectors
   NREBOOT  =      0    no. of reboots
   NMIN     =      0    reboot dimension
   EREF     =   0.00    reference energy to select bands
   IMIX   =      4    mixing-type and parameters
     AMIX     =   0.40;   BMIX     =  1.00
     AMIX_MAG =   1.60;   BMIX_MAG =  1.00
     AMIN     =   0.10
     WC   =   100.;   INIMIX=   1;  MIXPRE=   1;  MAXMIX= -45

 Intra band minimization:
   WEIMIN = 0.0010     energy-eigenvalue tresh-hold
   EBREAK =  0.31E-05  absolut break condition
   DEPER  =   0.30     relativ break condition  

   TIME   =   0.40     timestep for ELM

  volume/ion in A,a.u.               =     170.67      1151.72
  Fermi-wavevector in a.u.,A,eV,Ry     =   0.409275  0.773417  2.279054  0.167506
  Thomas-Fermi vector in A             =   1.364147
 
 Write flags
   LWAVE  =      T    write WAVECAR
   LCHARG =      T    write CHGCAR
   LVTOT  =      F    write LOCPOT, total local potential
   LVHAR  =      F    write LOCPOT, Hartree potential only
   LELF   =      F    write electronic localiz. function (ELF)
   LORBIT =      0    0 simple, 1 ext, 2 COOP (PROOUT)


 Dipole corrections
   LMONO  =      F    monopole corrections only (constant potential shift)
   LDIPOL =      F    correct potential (dipole corrections)
   IDIPOL =      0    1-x, 2-y, 3-z, 4-all directions 
   EPSILON=  1.0000000 bulk dielectric constant

 Exchange correlation treatment:
   GGA     =    PE    GGA type
   LEXCH   =     8    internal setting for exchange type
   VOSKOWN=      0    Vosko Wilk Nusair interpolation
   LHFCALC =     F    Hartree Fock is set to
   LHFONE  =     F    Hartree Fock one center treatment
   AEXX    =    0.0000 exact exchange contribution

 Linear response parameters
   LEPSILON=     F    determine dielectric tensor
   LRPA    =     F    only Hartree local field effects (RPA)
   LNABLA  =     F    use nabla operator in PAW spheres
   LVEL    =     F    velocity operator in full k-point grid
   LINTERFAST=   F  fast interpolation
   KINTER  =     0    interpolate to denser k-point grid
   CSHIFT  =0.1000    complex shift for real part using Kramers Kronig
   OMEGAMAX=  -1.0    maximum frequency
   DEG_THRESHOLD= 0.2000000E-02 threshold for treating states as degnerate
   RTIME   =    0.100 relaxation time in fs

 Orbital magnetization related:
   ORBITALMAG=     F  switch on orbital magnetization
   LCHIMAG   =     F  perturbation theory with respect to B field
   DQ        =  0.001000  dq finite difference perturbation B field



--------------------------------------------------------------------------------------------------------


 quasi-Newton-method for relaxation of ions
 charge density and potential will be updated during run
 non-spin polarized calculation
 Variant of blocked Davidson
 Davidson routine will perform the subspace rotation
 perform sub-space diagonalisation
    after iterative eigenvector-optimisation
 modified Broyden-mixing scheme, WC =      100.0
 initial mixing is a Kerker type mixing with AMIX =  0.4000 and BMIX =      1.0000
 Hartree-type preconditioning will be used
 using additional bands            4
 reciprocal scheme for non local part
 use partial core corrections
 calculate Harris-corrections to forces 
   (improved forces if not selfconsistent)
 use gradient corrections 
 use of overlap-Matrix (Vanderbilt PP)
 Gauss-broadening in eV      SIGMA  =   0.20


--------------------------------------------------------------------------------------------------------


  energy-cutoff  :      400.00
  volume of cell :      512.00
      direct lattice vectors                 reciprocal lattice vectors
     8.000000000  0.000000000  0.000000000     0.125000000  0.000000000  0.000000000
     0.000000000  8.000000000  0.000000000     0.000000000  0.125000000  0.000000000
     0.000000000  0.000000000  8.000000000     0.000000000  0.000000000  0.125000000

  length of vectors
     8.000000000  8.000000000  8.000000000     0.125000000  0.125000000  0.125000000


 
 k-points in units of 2pi/SCALE and weight: KPOINTS created by Atomic Simulation Env
   0.00000000  0.00000000  0.00000000       1.000
 
 k-points in reciprocal lattice and weights: KPOINTS created by Atomic Simulation Env
   0.00000000  0.00000000  0.00000000       1.000
 
 position of ions in fractional coordinates (direct lattice) 
   0.53725507  0.40403328  0.50000000
   0.53725507  0.59596672  0.50000000
   0.46274493  0.49999663  0.50000000
 
 position of ions in cartesian coordinates  (Angst):
   4.29804060  3.23226626  4.00000000
   4.29804060  4.76773374  4.00000000
   3.70195940  3.99997306  4.00000000
 


--------------------------------------------------------------------------------------------------------


 k-point  1 :   0.0000 0.0000 0.0000  plane waves:    9315

 maximum and minimum number of plane-waves per node :      9315     9315

 maximum number of plane-waves:      9315
 maximum index in each direction: 
   IXMAX=   13   IYMAX=   13   IZMAX=   13
   IXMIN=  -13   IYMIN=  -13   IZMIN=  -13

 WARNING: aliasing errors must be expected set NGX to  54 to avoid them
 WARNING: aliasing errors must be expected set NGY to  54 to avoid them
 WARNING: aliasing errors must be expected set NGZ to  54 to avoid them
 aliasing errors are usually negligible using standard VASP settings
 and one can safely disregard these warnings

 serial   3D FFT for wavefunctions
 parallel 3D FFT for charge:
    minimum data exchange during FFTs selected (reduces bandwidth)


 total amount of memory used by VASP on root node    82475. kBytes
========================================================================

   base      :      30000. kBytes
   nonl-proj :       1639. kBytes
   fftplans  :      17864. kBytes
   grid      :      31769. kBytes
   one-center:          9. kBytes
   wavefun   :       1194. kBytes
 
     INWAV:  cpu time    0.0001: real time    0.0001
 Broyden mixing: mesh for mixing (old mesh)
   NGX = 27   NGY = 27   NGZ = 27
  (NGX  = 80   NGY  = 80   NGZ  = 80)
  gives a total of  19683 points

 initial charge density was supplied:
 charge density of overlapping atoms calculated
 number of electron       8.0000000 magnetization 
 keeping initial charge density in first step


--------------------------------------------------------------------------------------------------------


 Maximum index for augmentation-charges         1567 (set IRDMAX)


--------------------------------------------------------------------------------------------------------


 First call to EWALD:  gamma=   0.222
 Maximum number of real-space cells 3x 3x 3
 Maximum number of reciprocal cells 3x 3x 3

 FEWALD executed in parallel
    FEWALD:  cpu time    0.0018: real time    0.0018


----------------------------------------- Iteration    1(   1)  ---------------------------------------


    POTLOK:  cpu time    0.3275: real time    0.3275
    SETDIJ:  cpu time    0.0043: real time    0.0042
     EDDAV:  cpu time    0.1212: real time    0.1553
       DOS:  cpu time    0.0002: real time    0.0002
    --------------------------------------------
      LOOP:  cpu time    0.4559: real time    0.8580

 eigenvalue-minimisations  :    24
 total energy-change (2. order) : 0.4198199E+02  (-0.2352635E+03)
 number of electron       8.0000000 magnetization 
 augmentation part        8.0000000 magnetization 

 Free energy of the ion-electron system (eV)
  ---------------------------------------------------
  alpha Z        PSCENC =         0.43799080
  Ewald energy   TEWEN  =        24.54433861
  -Hartree energ DENC   =      -385.76695088
  -exchange      EXHF   =         0.00000000
  -V(xc)+E(xc)   XCENC  =        32.18130007
  PAW double counting   =       350.81753176     -352.63395800
  entropy T*S    EENTRO =        -0.00029449
  eigenvalues    EBANDS =       -84.81842776
  atomic energy  EATOM  =       457.22046137
  Solvation  Ediel_sol  =         0.00000000
  ---------------------------------------------------
  free energy    TOTEN  =        41.98199147 eV

  energy without entropy =       41.98228597  energy(sigma->0) =       41.98213872


--------------------------------------------------------------------------------------------------------




----------------------------------------- Iteration    1(   2)  ---------------------------------------


     EDDAV:  cpu time    0.1076: real time    0.1077
       DOS:  cpu time    0.0001: real time    0.0001
    --------------------------------------------
      LOOP:  cpu time    0.1087: real time    0.1093

 eigenvalue-minimisations  :    24
 total energy-change (2. order) :-0.5193952E+02  (-0.5193775E+02)
 number of electron       8.0000000 magnetization 
 augmentation part        8.0000000 magnetization 

 Free energy of the ion-electron system (eV)
  ---------------------------------------------------
  alpha Z        PSCENC =         0.43799080
  Ewald energy   TEWEN  =        24.54433861
  -Hartree energ DENC   =      -385.76695088
  -exchange      EXHF   =         0.00000000
  -V(xc)+E(xc)   XCENC  =        32.18130007
  PAW double counting   =       350.81753176     -352.63395800
  entropy T*S    EENTRO =        -0.00000000
  eigenvalues    EBANDS =      -136.75823939
  atomic energy  EATOM  =       457.22046137
  Solvation  Ediel_sol  =         0.00000000
  ---------------------------------------------------
  free energy    TOTEN  =        -9.95752566 eV

  energy without entropy =       -9.95752566  energy(sigma->0) =       -9.95752566


--------------------------------------------------------------------------------------------------------




----------------------------------------- Iteration    1(   3)  ---------------------------------------


     EDDAV:  cpu time    0.1271: real time    0.1271
       DOS:  cpu time    0.0001: real time    0.0001
    --------------------------------------------
      LOOP:  cpu time    0.1286: real time    0.1296

 eigenvalue-minimisations  :    16
 total energy-change (2. order) :-0.6218879E+01  (-0.6218879E+01)
 number of electron       8.0000000 magnetization 
 augmentation part        8.0000000 magnetization 

 Free energy of the ion-electron system (eV)
  ---------------------------------------------------
  alpha Z        PSCENC =         0.43799080
  Ewald energy   TEWEN  =        24.54433861
  -Hartree energ DENC   =      -385.76695088
  -exchange      EXHF   =         0.00000000
  -V(xc)+E(xc)   XCENC  =        32.18130007
  PAW double counting   =       350.81753176     -352.63395800
  entropy T*S    EENTRO =        -0.00000000
  eigenvalues    EBANDS =      -142.97711827
  atomic energy  EATOM  =       457.22046137
  Solvation  Ediel_sol  =         0.00000000
  ---------------------------------------------------
  free energy    TOTEN  =       -16.17640454 eV

  energy without entropy =      -16.17640454  energy(sigma->0) =      -16.17640454


--------------------------------------------------------------------------------------------------------




----------------------------------------- Iteration    1(   4)  ---------------------------------------


     EDDAV:  cpu time    0.1745: real time    0.1745
       DOS:  cpu time    0.0001: real time    0.0001
    --------------------------------------------
      LOOP:  cpu time    0.1756: real time    0.1763

 eigenvalue-minimisations  :    32
 total energy-change (2. order) :-0.7465681E-01  (-0.7465681E-01)
 number of electron       8.0000000 magnetization 
 augmentation part        8.0000000 magnetization 

 Free energy of the ion-electron system (eV)
  ---------------------------------------------------
  alpha Z        PSCENC =         0.43799080
  Ewald energy   TEWEN  =        24.54433861
  -Hartree energ DENC   =      -385.76695088
  -exchange      EXHF   =         0.00000000
  -V(xc)+E(xc)   XCENC  =        32.18130007
  PAW double counting   =       350.81753176     -352.63395800
  entropy T*S    EENTRO =        -0.00000000
  eigenvalues    EBANDS =      -143.05177509
  atomic energy  EATOM  =       457.22046137
  Solvation  Ediel_sol  =         0.00000000
  ---------------------------------------------------
  free energy    TOTEN  =       -16.25106136 eV

  energy without entropy =      -16.25106136  energy(sigma->0) =      -16.25106136


--------------------------------------------------------------------------------------------------------




----------------------------------------- Iteration    1(   5)  ---------------------------------------


     EDDAV:  cpu time    0.1719: real time    0.1719
       DOS:  cpu time    0.0001: real time    0.0001
    CHARGE:  cpu time    0.0272: real time    0.0272
    MIXING:  cpu time    0.0205: real time    0.0205
    --------------------------------------------
      LOOP:  cpu time    0.2207: real time    0.2214

 eigenvalue-minimisations  :    32
 total energy-change (2. order) :-0.1271981E-04  (-0.1271981E-04)
 number of electron       8.0000142 magnetization 
 augmentation part        0.8298541 magnetization 

 Broyden mixing:
  rms(total) = 0.78806E+00    rms(broyden)= 0.78652E+00
  rms(prec ) = 0.11874E+01
  weight for this iteration     100.00

 Free energy of the ion-electron system (eV)
  ---------------------------------------------------
  alpha Z        PSCENC =         0.43799080
  Ewald energy   TEWEN  =        24.54433861
  -Hartree energ DENC   =      -385.76695088
  -exchange      EXHF   =         0.00000000
  -V(xc)+E(xc)   XCENC  =        32.18130007
  PAW double counting   =       350.81753176     -352.63395800
  entropy T*S    EENTRO =        -0.00000000
  eigenvalues    EBANDS =      -143.05178781
  atomic energy  EATOM  =       457.22046137
  Solvation  Ediel_sol  =         0.00000000
  ---------------------------------------------------
  free energy    TOTEN  =       -16.25107408 eV

  energy without entropy =      -16.25107408  energy(sigma->0) =      -16.25107408


--------------------------------------------------------------------------------------------------------




----------------------------------------- Iteration    1(   6)  ---------------------------------------


    POTLOK:  cpu time    0.3358: real time    0.3358
    SETDIJ:  cpu time    0.0034: real time    0.0034
     EDDAV:  cpu time    0.0846: real time    0.0846
       DOS:  cpu time    0.0001: real time    0.0001
    CHARGE:  cpu time    0.0212: real time    0.0212
    MIXING:  cpu time    0.0177: real time    0.0177
    --------------------------------------------
      LOOP:  cpu time    0.4640: real time    0.4648

 eigenvalue-minimisations  :    16
 total energy-change (2. order) : 0.1859455E+01  (-0.9289486E+00)
 number of electron       8.0000121 magnetization 
 augmentation part        0.6956415 magnetization 

 Broyden mixing:
  rms(total) = 0.32498E+00    rms(broyden)= 0.32456E+00
  rms(prec ) = 0.41484E+00
  weight for this iteration     100.00

 eigenvalues of (default mixing * dielectric matrix)
  average eigenvalue GAMMA=   0.9249
  0.9249

 Free energy of the ion-electron system (eV)
  ---------------------------------------------------
  alpha Z        PSCENC =         0.43799080
  Ewald energy   TEWEN  =        24.54433861
  -Hartree energ DENC   =      -409.64517459
  -exchange      EXHF   =         0.00000000
  -V(xc)+E(xc)   XCENC  =        33.51450798
  PAW double counting   =       450.42643708     -452.57873167
  entropy T*S    EENTRO =        -0.00000000
  eigenvalues    EBANDS =      -118.31144816
  atomic energy  EATOM  =       457.22046137
  Solvation  Ediel_sol  =         0.00000000
  ---------------------------------------------------
  free energy    TOTEN  =       -14.39161858 eV

  energy without entropy =      -14.39161858  energy(sigma->0) =      -14.39161858


--------------------------------------------------------------------------------------------------------




----------------------------------------- Iteration    1(   7)  ---------------------------------------


    POTLOK:  cpu time    0.2699: real time    0.2699
    SETDIJ:  cpu time    0.0051: real time    0.0051
     EDDAV:  cpu time    0.1338: real time    0.1339
       DOS:  cpu time    0.0001: real time    0.0001
    CHARGE:  cpu time    0.0190: real time    0.0190
    MIXING:  cpu time    0.0147: real time    0.0147
    --------------------------------------------
      LOOP:  cpu time    0.4436: real time    0.4445

 eigenvalue-minimisations  :    32
 total energy-change (2. order) : 0.1075296E+00  (-0.9826136E-02)
 number of electron       8.0000121 magnetization 
 augmentation part        0.6921465 magnetization 

 Broyden mixing:
  rms(total) = 0.19912E+00    rms(broyden)= 0.19910E+00
  rms(prec ) = 0.26087E+00
  weight for this iteration     100.00

 eigenvalues of (default mixing * dielectric matrix)
  average eigenvalue GAMMA=   1.7313
  1.0348  2.4278

 Free energy of the ion-electron system (eV)
  ---------------------------------------------------
  alpha Z        PSCENC =         0.43799080
  Ewald energy   TEWEN  =        24.54433861
  -Hartree energ DENC   =      -413.24310739
  -exchange      EXHF   =         0.00000000
  -V(xc)+E(xc)   XCENC  =        33.70165374
  PAW double counting   =       497.54460685     -499.65909289
  entropy T*S    EENTRO =        -0.00000000
  eigenvalues    EBANDS =      -114.83094011
  atomic energy  EATOM  =       457.22046137
  Solvation  Ediel_sol  =         0.00000000
  ---------------------------------------------------
  free energy    TOTEN  =       -14.28408902 eV

  energy without entropy =      -14.28408902  energy(sigma->0) =      -14.28408902


--------------------------------------------------------------------------------------------------------




----------------------------------------- Iteration    1(   8)  ---------------------------------------


    POTLOK:  cpu time    0.2119: real time    0.2119
    SETDIJ:  cpu time    0.0033: real time    0.0033
     EDDAV:  cpu time    0.0945: real time    0.0946
       DOS:  cpu time    0.0001: real time    0.0001
    CHARGE:  cpu time    0.0303: real time    0.0303
    MIXING:  cpu time    0.0263: real time    0.0263
    --------------------------------------------
      LOOP:  cpu time    0.3677: real time    0.3685

 eigenvalue-minimisations  :    16
 total energy-change (2. order) : 0.8005693E-01  (-0.6984687E-02)
 number of electron       8.0000120 magnetization 
 augmentation part        0.6907804 magnetization 

 Broyden mixing:
  rms(total) = 0.21960E-01    rms(broyden)= 0.21955E-01
  rms(prec ) = 0.51988E-01
  weight for this iteration     100.00

 eigenvalues of (default mixing * dielectric matrix)
  average eigenvalue GAMMA=   1.4760
  2.3963  0.9923  1.0396

 Free energy of the ion-electron system (eV)
  ---------------------------------------------------
  alpha Z        PSCENC =         0.43799080
  Ewald energy   TEWEN  =        24.54433861
  -Hartree energ DENC   =      -418.67447365
  -exchange      EXHF   =         0.00000000
  -V(xc)+E(xc)   XCENC  =        34.00590616
  PAW double counting   =       571.87745501     -573.94069667
  entropy T*S    EENTRO =        -0.00000000
  eigenvalues    EBANDS =      -109.67501371
  atomic energy  EATOM  =       457.22046137
  Solvation  Ediel_sol  =         0.00000000
  ---------------------------------------------------
  free energy    TOTEN  =       -14.20403210 eV

  energy without entropy =      -14.20403210  energy(sigma->0) =      -14.20403210


--------------------------------------------------------------------------------------------------------




----------------------------------------- Iteration    1(   9)  ---------------------------------------


    POTLOK:  cpu time    0.3580: real time    0.3580
    SETDIJ:  cpu time    0.0039: real time    0.0039
     EDDAV:  cpu time    0.1759: real time    0.1759
       DOS:  cpu time    0.0001: real time    0.0001
    CHARGE:  cpu time    0.0262: real time    0.0262
    MIXING:  cpu time    0.0247: real time    0.0247
    --------------------------------------------
      LOOP:  cpu time    0.5902: real time    0.5911

 eigenvalue-minimisations  :    32
 total energy-change (2. order) :-0.4195585E-02  (-0.6189230E-03)
 number of electron       8.0000120 magnetization 
 augmentation part        0.6876059 magnetization 

 Broyden mixing:
  rms(total) = 0.15203E-01    rms(broyden)= 0.15193E-01
  rms(prec ) = 0.37486E-01
  weight for this iteration     100.00

 eigenvalues of (default mixing * dielectric matrix)
  average eigenvalue GAMMA=   1.8976
  0.9944  0.9944  2.9796  2.6220

 Free energy of the ion-electron system (eV)
  ---------------------------------------------------
  alpha Z        PSCENC =         0.43799080
  Ewald energy   TEWEN  =        24.54433861
  -Hartree energ DENC   =      -419.31368597
  -exchange      EXHF   =         0.00000000
  -V(xc)+E(xc)   XCENC  =        34.02467479
  PAW double counting   =       566.48236140     -568.54971796
  entropy T*S    EENTRO =        -0.00000000
  eigenvalues    EBANDS =      -109.05465072
  atomic energy  EATOM  =       457.22046137
  Solvation  Ediel_sol  =         0.00000000
  ---------------------------------------------------
  free energy    TOTEN  =       -14.20822768 eV

  energy without entropy =      -14.20822768  energy(sigma->0) =      -14.20822768


--------------------------------------------------------------------------------------------------------




----------------------------------------- Iteration    1(  10)  ---------------------------------------


    POTLOK:  cpu time    0.3239: real time    0.3239
    SETDIJ:  cpu time    0.0030: real time    0.0030
     EDDAV:  cpu time    0.0853: real time    0.0853
       DOS:  cpu time    0.0001: real time    0.0001
    CHARGE:  cpu time    0.0224: real time    0.0224
    MIXING:  cpu time    0.0227: real time    0.0227
    --------------------------------------------
      LOOP:  cpu time    0.4585: real time    0.4595

 eigenvalue-minimisations  :    16
 total energy-change (2. order) :-0.8899131E-02  (-0.5151288E-03)
 number of electron       8.0000120 magnetization 
 augmentation part        0.6891155 magnetization 

 Broyden mixing:
  rms(total) = 0.90806E-02    rms(broyden)= 0.90763E-02
  rms(prec ) = 0.16211E-01
  weight for this iteration     100.00

 eigenvalues of (default mixing * dielectric matrix)
  average eigenvalue GAMMA=   1.7703
  3.3540  2.4238  0.9671  0.9671  1.1395

 Free energy of the ion-electron system (eV)
  ---------------------------------------------------
  alpha Z        PSCENC =         0.43799080
  Ewald energy   TEWEN  =        24.54433861
  -Hartree energ DENC   =      -419.79001500
  -exchange      EXHF   =         0.00000000
  -V(xc)+E(xc)   XCENC  =        34.01757932
  PAW double counting   =       556.93613136     -558.99319814
  entropy T*S    EENTRO =        -0.00000000
  eigenvalues    EBANDS =      -108.59041512
  atomic energy  EATOM  =       457.22046137
  Solvation  Ediel_sol  =         0.00000000
  ---------------------------------------------------
  free energy    TOTEN  =       -14.21712681 eV

  energy without entropy =      -14.21712681  energy(sigma->0) =      -14.21712681


--------------------------------------------------------------------------------------------------------




----------------------------------------- Iteration    1(  11)  ---------------------------------------


    POTLOK:  cpu time    0.3128: real time    0.3129
    SETDIJ:  cpu time    0.0030: real time    0.0030
     EDDAV:  cpu time    0.0853: real time    0.0853
       DOS:  cpu time    0.0001: real time    0.0001
    CHARGE:  cpu time    0.0224: real time    0.0225
    MIXING:  cpu time    0.0222: real time    0.0222
    --------------------------------------------
      LOOP:  cpu time    0.4472: real time    0.4484

 eigenvalue-minimisations  :    16
 total energy-change (2. order) :-0.4311482E-02  (-0.4035172E-03)
 number of electron       8.0000120 magnetization 
 augmentation part        0.6864081 magnetization 

 Broyden mixing:
  rms(total) = 0.73956E-02    rms(broyden)= 0.73886E-02
  rms(prec ) = 0.13096E-01
  weight for this iteration     100.00

 eigenvalues of (default mixing * dielectric matrix)
  average eigenvalue GAMMA=   2.1555
  4.7180  2.9059  2.4083  1.0572  0.9217  0.9217

 Free energy of the ion-electron system (eV)
  ---------------------------------------------------
  alpha Z        PSCENC =         0.43799080
  Ewald energy   TEWEN  =        24.54433861
  -Hartree energ DENC   =      -420.35669336
  -exchange      EXHF   =         0.00000000
  -V(xc)+E(xc)   XCENC  =        34.04380538
  PAW double counting   =       560.60006143     -562.66226744
  entropy T*S    EENTRO =        -0.00000000
  eigenvalues    EBANDS =      -108.04913509
  atomic energy  EATOM  =       457.22046137
  Solvation  Ediel_sol  =         0.00000000
  ---------------------------------------------------
  free energy    TOTEN  =       -14.22143829 eV

  energy without entropy =      -14.22143829  energy(sigma->0) =      -14.22143829


--------------------------------------------------------------------------------------------------------




----------------------------------------- Iteration    1(  12)  ---------------------------------------


    POTLOK:  cpu time    0.3056: real time    0.3056
    SETDIJ:  cpu time    0.0030: real time    0.0030
     EDDAV:  cpu time    0.1516: real time    0.1516
       DOS:  cpu time    0.0001: real time    0.0001
    CHARGE:  cpu time    0.0225: real time    0.0225
    MIXING:  cpu time    0.0229: real time    0.0229
    --------------------------------------------
      LOOP:  cpu time    0.5070: real time    0.5080

 eigenvalue-minimisations  :    32
 total energy-change (2. order) :-0.3915073E-02  (-0.1669214E-03)
 number of electron       8.0000120 magnetization 
 augmentation part        0.6875612 magnetization 

 Broyden mixing:
  rms(total) = 0.23547E-02    rms(broyden)= 0.23528E-02
  rms(prec ) = 0.37236E-02
  weight for this iteration     100.00

 eigenvalues of (default mixing * dielectric matrix)
  average eigenvalue GAMMA=   2.0196
  4.6077  2.9050  2.5075  1.1097  1.1097  0.9490  0.9490

 Free energy of the ion-electron system (eV)
  ---------------------------------------------------
  alpha Z        PSCENC =         0.43799080
  Ewald energy   TEWEN  =        24.54433861
  -Hartree energ DENC   =      -420.15396616
  -exchange      EXHF   =         0.00000000
  -V(xc)+E(xc)   XCENC  =        34.02619526
  PAW double counting   =       560.40207408     -562.46138871
  entropy T*S    EENTRO =        -0.00000000
  eigenvalues    EBANDS =      -108.24105861
  atomic energy  EATOM  =       457.22046137
  Solvation  Ediel_sol  =         0.00000000
  ---------------------------------------------------
  free energy    TOTEN  =       -14.22535337 eV

  energy without entropy =      -14.22535337  energy(sigma->0) =      -14.22535337


--------------------------------------------------------------------------------------------------------




----------------------------------------- Iteration    1(  13)  ---------------------------------------


    POTLOK:  cpu time    0.3197: real time    0.3198
    SETDIJ:  cpu time    0.0033: real time    0.0033
     EDDAV:  cpu time    0.1203: real time    0.1203
       DOS:  cpu time    0.0001: real time    0.0001
    CHARGE:  cpu time    0.0237: real time    0.0237
    MIXING:  cpu time    0.0248: real time    0.0248
    --------------------------------------------
      LOOP:  cpu time    0.4931: real time    0.4943

 eigenvalue-minimisations  :    24
 total energy-change (2. order) :-0.8111851E-03  (-0.8628267E-05)
 number of electron       8.0000120 magnetization 
 augmentation part        0.6877328 magnetization 

 Broyden mixing:
  rms(total) = 0.11157E-02    rms(broyden)= 0.11148E-02
  rms(prec ) = 0.17580E-02
  weight for this iteration     100.00

 eigenvalues of (default mixing * dielectric matrix)
  average eigenvalue GAMMA=   2.2588
  5.8195  3.4217  2.6530  2.3612  1.0784  0.9176  0.9176  0.9016

 Free energy of the ion-electron system (eV)
  ---------------------------------------------------
  alpha Z        PSCENC =         0.43799080
  Ewald energy   TEWEN  =        24.54433861
  -Hartree energ DENC   =      -420.11961920
  -exchange      EXHF   =         0.00000000
  -V(xc)+E(xc)   XCENC  =        34.02392008
  PAW double counting   =       560.64198657     -562.70127008
  entropy T*S    EENTRO =        -0.00000000
  eigenvalues    EBANDS =      -108.27397271
  atomic energy  EATOM  =       457.22046137
  Solvation  Ediel_sol  =         0.00000000
  ---------------------------------------------------
  free energy    TOTEN  =       -14.22616455 eV

  energy without entropy =      -14.22616455  energy(sigma->0) =      -14.22616455


--------------------------------------------------------------------------------------------------------




----------------------------------------- Iteration    1(  14)  ---------------------------------------


    POTLOK:  cpu time    0.3155: real time    0.3156
    SETDIJ:  cpu time    0.0030: real time    0.0030
     EDDAV:  cpu time    0.1441: real time    0.1441
       DOS:  cpu time    0.0001: real time    0.0001
    CHARGE:  cpu time    0.0225: real time    0.0225
    MIXING:  cpu time    0.0249: real time    0.0249
    --------------------------------------------
      LOOP:  cpu time    0.5113: real time    0.5122

 eigenvalue-minimisations  :    32
 total energy-change (2. order) :-0.3791551E-03  (-0.4457420E-05)
 number of electron       8.0000120 magnetization 
 augmentation part        0.6878559 magnetization 

 Broyden mixing:
  rms(total) = 0.65818E-03    rms(broyden)= 0.65769E-03
  rms(prec ) = 0.87632E-03
  weight for this iteration     100.00

 eigenvalues of (default mixing * dielectric matrix)
  average eigenvalue GAMMA=   2.3445
  6.1608  3.8287  2.7693  2.4223  1.9604  1.1027  0.9320  0.9320  0.9921

 Free energy of the ion-electron system (eV)
  ---------------------------------------------------
  alpha Z        PSCENC =         0.43799080
  Ewald energy   TEWEN  =        24.54433861
  -Hartree energ DENC   =      -420.05947054
  -exchange      EXHF   =         0.00000000
  -V(xc)+E(xc)   XCENC  =        34.02025339
  PAW double counting   =       560.13634008     -562.19562027
  entropy T*S    EENTRO =        -0.00000000
  eigenvalues    EBANDS =      -108.33083715
  atomic energy  EATOM  =       457.22046137
  Solvation  Ediel_sol  =         0.00000000
  ---------------------------------------------------
  free energy    TOTEN  =       -14.22654371 eV

  energy without entropy =      -14.22654371  energy(sigma->0) =      -14.22654371


--------------------------------------------------------------------------------------------------------




----------------------------------------- Iteration    1(  15)  ---------------------------------------


    POTLOK:  cpu time    0.3124: real time    0.3125
    SETDIJ:  cpu time    0.0030: real time    0.0030
     EDDAV:  cpu time    0.1407: real time    0.1407
       DOS:  cpu time    0.0001: real time    0.0001
    --------------------------------------------
      LOOP:  cpu time    0.4571: real time    0.4581

 eigenvalue-minimisations  :    32
 total energy-change (2. order) :-0.8345716E-04  (-0.8262205E-06)
 number of electron       8.0000120 magnetization 
 augmentation part        0.6878559 magnetization 

 Free energy of the ion-electron system (eV)
  ---------------------------------------------------
  alpha Z        PSCENC =         0.43799080
  Ewald energy   TEWEN  =        24.54433861
  -Hartree energ DENC   =      -420.06349769
  -exchange      EXHF   =         0.00000000
  -V(xc)+E(xc)   XCENC  =        34.02055908
  PAW double counting   =       560.01837472     -562.07739294
  entropy T*S    EENTRO =        -0.00000000
  eigenvalues    EBANDS =      -108.32746111
  atomic energy  EATOM  =       457.22046137
  Solvation  Ediel_sol  =         0.00000000
  ---------------------------------------------------
  free energy    TOTEN  =       -14.22662716 eV

  energy without entropy =      -14.22662716  energy(sigma->0) =      -14.22662716


--------------------------------------------------------------------------------------------------------




 average (electrostatic) potential at core
  the test charge radii are     0.5201  0.7215
  (the norm of the test charge is              1.0000)
       1 -44.5006       2 -44.4972       3 -80.4586
 
 
 
 E-fermi :  -6.0162     XC(G=0):  -0.9717     alpha+bet : -0.2541


 k-point     1 :       0.0000    0.0000    0.0000
  band No.  band energies     occupation 
      1     -25.1254      2.00000
      2     -12.9137      2.00000
      3      -9.0984      2.00000
      4      -7.0261      2.00000
      5      -1.0613      0.00000
      6       1.1192      0.00000
      7       1.2220      0.00000
      8       1.7655      0.00000


--------------------------------------------------------------------------------------------------------


 soft charge-density along one line, spin component           1
         0         1         2         3         4         5         6         7         8         9
 total charge-density along one line
 
 pseudopotential strength for first ion, spin component:           1
 -2.382  -4.112  -0.002  -0.000   0.002
 -4.112  -7.014  -0.007  -0.000   0.005
 -0.002  -0.007  -0.318  -0.000  -0.004
 -0.000  -0.000  -0.000  -0.325   0.000
  0.002   0.005  -0.004   0.000  -0.321
 total augmentation occupancy for first ion, spin component:           1
  4.027  -0.894   0.577   0.000  -0.434
 -0.894   0.244  -0.123   0.000   0.098
  0.577  -0.123   0.090   0.000  -0.051
  0.000   0.000   0.000   0.038   0.000
 -0.434   0.098  -0.051   0.000   0.065


------------------------ aborting loop because EDIFF is reached ----------------------------------------


    CHARGE:  cpu time    0.0224: real time    0.0224
    FORLOC:  cpu time    0.0209: real time    0.0209
    FORNL :  cpu time    0.0199: real time    0.0199
    STRESS:  cpu time    0.1038: real time    0.1038
    FORCOR:  cpu time    0.3247: real time    0.3247
    FORHAR:  cpu time    0.0946: real time    0.0946
    MIXING:  cpu time    0.0360: real time    0.0360
    OFIELD:  cpu time    0.0001: real time    0.0001

  FORCE on cell =-STRESS in cart. coord.  units (eV):
  Direction    XX          YY          ZZ          XY          YZ          ZX
  --------------------------------------------------------------------------------------
  Alpha Z     0.43799     0.43799     0.43799
  Ewald      12.61779    66.79666   -54.87015    -0.00267    -0.00000    -0.00000
  Hartree   141.01217   150.36059   128.68801    -0.00003    -0.00000    -0.00000
  E(xc)     -36.12051   -35.92341   -36.41698    -0.00001     0.00000    -0.00000
  Local    -243.01965  -291.42609  -183.89889     0.00108    -0.00000    -0.00000
  n-local   -31.30439   -30.44846   -31.19085     0.00019     0.00000     0.00000
  augment     6.72258     5.76843     8.13705     0.00007     0.00000     0.00000
  Kinetic   148.87549   133.78696   168.25645     0.00104     0.00000    -0.00000
  Fock        0.00000     0.00000     0.00000     0.00000     0.00000     0.00000
  -------------------------------------------------------------------------------------
  Total      -0.77852    -0.64732    -0.85737     0.00000     0.00000     0.00000
  in kB      -2.43620    -2.02564    -2.68294     0.00000     0.00000     0.00000
  external pressure =       -2.38 kB  Pullay stress =        0.00 kB


 VOLUME and BASIS-vectors are now :
 -----------------------------------------------------------------------------
  energy-cutoff  :      400.00
  volume of cell :      512.00
      direct lattice vectors                 reciprocal lattice vectors
     8.000000000  0.000000000  0.000000000     0.125000000  0.000000000  0.000000000
     0.000000000  8.000000000  0.000000000     0.000000000  0.125000000  0.000000000
     0.000000000  0.000000000  8.000000000     0.000000000  0.000000000  0.125000000

  length of vectors
     8.000000000  8.000000000  8.000000000     0.125000000  0.125000000  0.125000000


 FORCES acting on ions
    electron-ion (+dipol)            ewald-force                    non-local-force                 convergence-correction
 -----------------------------------------------------------------------------------------------
   -.508E+02 0.708E+02 -.180E-06   0.557E+02 -.776E+02 -.329E-17   -.486E+01 0.672E+01 0.000E+00   -.130E-03 0.494E-04 -.677E-15
   -.508E+02 -.708E+02 0.191E-06   0.557E+02 0.776E+02 0.335E-17   -.486E+01 -.672E+01 0.000E+00   -.131E-03 -.494E-04 0.150E-14
   0.622E+02 0.354E-01 0.209E-05   -.111E+03 0.446E-02 0.762E-17   0.491E+02 0.000E+00 0.000E+00   -.109E-02 0.991E-06 0.679E-15
 -----------------------------------------------------------------------------------------------
   -.394E+02 0.358E-01 0.210E-05   0.000E+00 -.564E-16 0.767E-17   0.394E+02 0.000E+00 0.000E+00   -.135E-02 0.985E-06 0.150E-14
 
 
 POSITION                                       TOTAL-FORCE (eV/Angst)
 -----------------------------------------------------------------------------------
      4.29804      3.23227      4.00000         0.021372     -0.034943      0.000000
      4.29804      4.76773      4.00000         0.021372      0.034943      0.000000
      3.70196      3.99997      4.00000        -0.042743      0.000000      0.000000
 -----------------------------------------------------------------------------------
    total drift:                                0.000911      0.035828      0.000002


--------------------------------------------------------------------------------------------------------



  FREE ENERGIE OF THE ION-ELECTRON SYSTEM (eV)
  ---------------------------------------------------
  free  energy   TOTEN  =       -14.22662716 eV

  energy  without entropy=      -14.22662716  energy(sigma->0) =      -14.22662716
 


--------------------------------------------------------------------------------------------------------


    POTLOK:  cpu time    0.3204: real time    0.3205


--------------------------------------------------------------------------------------------------------


 stress matrix after NEB project (eV)
     -0.77852      0.00000      0.00000
      0.00000     -0.64732      0.00000
      0.00000      0.00000     -0.85737
  FORCES: max atom, RMS     0.042743    0.041563
  FORCE total and by dimension    0.071990    0.042743
  Stress total and by dimension    1.326731    0.857372
 Quasi-Newton relaxation of ions (Broydens 2nd method)
  g(Force)  = 0.250E-03   g(Stress)= 0.000E+00

 Reset! Starting new Quasi-Newton update for ions 


--------------------------------------------------------------------------------------------------------


    WAVPRE:  cpu time    0.1102: real time    0.1102
 FEWALD executed in parallel
    FEWALD:  cpu time    0.0002: real time    0.0002
    ORTHCH:  cpu time    0.0062: real time    0.0062
     LOOP+:  cpu time    7.4347: real time    7.8552


----------------------------------------- Iteration    2(   1)  ---------------------------------------


    POTLOK:  cpu time    0.3108: real time    0.3108
    SETDIJ:  cpu time    0.0048: real time    0.0048
     EDDAV:  cpu time    0.1069: real time    0.1069
       DOS:  cpu time    0.0001: real time    0.0001
    CHARGE:  cpu time    0.0212: real time    0.0212
    MIXING:  cpu time    0.0150: real time    0.0150
    --------------------------------------------
      LOOP:  cpu time    0.4595: real time    0.4596

 eigenvalue-minimisations  :    24
 total energy-change (2. order) : 0.8561125E-04  (-0.3321141E-02)
 number of electron       8.0000121 magnetization 
 augmentation part        0.6855226 magnetization 

 Broyden mixing:
  rms(total) = 0.71253E-02    rms(broyden)= 0.71145E-02
  rms(prec ) = 0.94979E-02
  weight for this iteration     100.00

 Free energy of the ion-electron system (eV)
  ---------------------------------------------------
  alpha Z        PSCENC =         0.43799080
  Ewald energy   TEWEN  =        23.94012508
  -Hartree energ DENC   =      -419.77411075
  -exchange      EXHF   =         0.00000000
  -V(xc)+E(xc)   XCENC  =        34.00708520
  PAW double counting   =       560.02610742     -562.08509305
  entropy T*S    EENTRO =        -0.00000000
  eigenvalues    EBANDS =      -107.99902416
  atomic energy  EATOM  =       457.22046137
  Solvation  Ediel_sol  =         0.00000000
  ---------------------------------------------------
  free energy    TOTEN  =       -14.22645810 eV

  energy without entropy =      -14.22645810  energy(sigma->0) =      -14.22645810


--------------------------------------------------------------------------------------------------------




----------------------------------------- Iteration    2(   2)  ---------------------------------------


    POTLOK:  cpu time    0.2333: real time    0.2333
    SETDIJ:  cpu time    0.0030: real time    0.0030
     EDDAV:  cpu time    0.0645: real time    0.0645
       DOS:  cpu time    0.0001: real time    0.0001
    --------------------------------------------
      LOOP:  cpu time    0.3018: real time    0.3029

 eigenvalue-minimisations  :    16
 total energy-change (2. order) : 0.5729487E-04  (-0.9046577E-04)
 number of electron       8.0000121 magnetization 
 augmentation part        0.6855226 magnetization 

 Free energy of the ion-electron system (eV)
  ---------------------------------------------------
  alpha Z        PSCENC =         0.43799080
  Ewald energy   TEWEN  =        23.94012508
  -Hartree energ DENC   =      -419.60775168
  -exchange      EXHF   =         0.00000000
  -V(xc)+E(xc)   XCENC  =        33.99761149
  PAW double counting   =       559.04465166     -561.10090529
  entropy T*S    EENTRO =        -0.00000000
  eigenvalues    EBANDS =      -108.15858421
  atomic energy  EATOM  =       457.22046137
  Solvation  Ediel_sol  =         0.00000000
  ---------------------------------------------------
  free energy    TOTEN  =       -14.22640080 eV

  energy without entropy =      -14.22640080  energy(sigma->0) =      -14.22640080


--------------------------------------------------------------------------------------------------------




 average (electrostatic) potential at core
  the test charge radii are     0.5201  0.7215
  (the norm of the test charge is              1.0000)
       1 -44.4505       2 -44.4471       3 -80.4534
 
 
 
 E-fermi :  -6.0184     XC(G=0):  -0.9699     alpha+bet : -0.2541


 k-point     1 :       0.0000    0.0000    0.0000
  band No.  band energies     occupation 
      1     -25.0871      2.00000
      2     -12.8712      2.00000
      3      -9.1022      2.00000
      4      -7.0188      2.00000
      5      -1.0720      0.00000
      6       1.1301      0.00000
      7       1.2130      0.00000
      8       1.7446      0.00000


--------------------------------------------------------------------------------------------------------


 soft charge-density along one line, spin component           1
         0         1         2         3         4         5         6         7         8         9
 total charge-density along one line
 
 pseudopotential strength for first ion, spin component:           1
 -2.381  -4.111  -0.002   0.000   0.002
 -4.111  -7.012  -0.007   0.000   0.005
 -0.002  -0.007  -0.319   0.000  -0.004
  0.000   0.000   0.000  -0.325  -0.000
  0.002   0.005  -0.004  -0.000  -0.321
 total augmentation occupancy for first ion, spin component:           1
  4.008  -0.889   0.569   0.000  -0.429
 -0.889   0.242  -0.122   0.000   0.098
  0.569  -0.122   0.088   0.000  -0.050
  0.000   0.000   0.000   0.038   0.000
 -0.429   0.098  -0.050   0.000   0.064


------------------------ aborting loop because EDIFF is reached ----------------------------------------


    CHARGE:  cpu time    0.0165: real time    0.0165
    FORLOC:  cpu time    0.0194: real time    0.0194
    FORNL :  cpu time    0.0164: real time    0.0164
    STRESS:  cpu time    0.0751: real time    0.0751
    FORCOR:  cpu time    0.2305: real time    0.2306
    FORHAR:  cpu time    0.0671: real time    0.0671
    MIXING:  cpu time    0.0151: real time    0.0151
    OFIELD:  cpu time    0.0001: real time    0.0001

  FORCE on cell =-STRESS in cart. coord.  units (eV):
  Direction    XX          YY          ZZ          XY          YZ          ZX
  --------------------------------------------------------------------------------------
  Alpha Z     0.43799     0.43799     0.43799
  Ewald      12.64857    66.16405   -54.87253    -0.00264    -0.00000    -0.00000
  Hartree   140.89143   150.15909   128.50792    -0.00003    -0.00000    -0.00000
  E(xc)     -36.09556   -35.90077   -36.39366    -0.00001     0.00000    -0.00000
  Local    -242.92350  -290.81469  -183.67845     0.00108    -0.00000     0.00000
  n-local   -31.22745   -30.36189   -31.14767     0.00018     0.00000    -0.00008
  augment     6.70835     5.76716     8.12603     0.00007     0.00000    -0.00000
  Kinetic   148.65332   133.71692   168.13618     0.00105     0.00000     0.00009
  Fock        0.00000     0.00000     0.00000     0.00000     0.00000     0.00000
  -------------------------------------------------------------------------------------
  Total      -0.90685    -0.83214    -0.88419     0.00000     0.00000     0.00000
  in kB      -2.83777    -2.60397    -2.76686     0.00000     0.00000     0.00000
  external pressure =       -2.74 kB  Pullay stress =        0.00 kB


 VOLUME and BASIS-vectors are now :
 -----------------------------------------------------------------------------
  energy-cutoff  :      400.00
  volume of cell :      512.00
      direct lattice vectors                 reciprocal lattice vectors
     8.000000000  0.000000000  0.000000000     0.125000000  0.000000000  0.000000000
     0.000000000  8.000000000  0.000000000     0.000000000  0.125000000  0.000000000
     0.000000000  0.000000000  8.000000000     0.000000000  0.000000000  0.125000000

  length of vectors
     8.000000000  8.000000000  8.000000000     0.125000000  0.125000000  0.125000000


 FORCES acting on ions
    electron-ion (+dipol)            ewald-force                    non-local-force                 convergence-correction
 -----------------------------------------------------------------------------------------------
   -.507E+02 0.705E+02 -.199E-06   0.554E+02 -.770E+02 0.166E-18   -.481E+01 0.663E+01 0.000E+00   0.109E-02 0.643E-02 0.286E-12
   -.507E+02 -.705E+02 0.204E-06   0.554E+02 0.770E+02 -.697E-17   -.481E+01 -.663E+01 0.000E+00   0.109E-02 -.643E-02 0.288E-12
   0.619E+02 0.354E-01 -.134E-06   -.111E+03 0.439E-02 0.145E-16   0.490E+02 0.000E+00 0.000E+00   0.135E+00 -.259E-05 0.467E-11
 -----------------------------------------------------------------------------------------------
   -.395E+02 0.358E-01 -.129E-06   0.000E+00 -.564E-16 0.767E-17   0.393E+02 0.000E+00 0.000E+00   0.137E+00 -.275E-05 0.525E-11
 
 
 POSITION                                       TOTAL-FORCE (eV/Angst)
 -----------------------------------------------------------------------------------
      4.29907      3.23058      4.00000        -0.070865      0.080249      0.000000
      4.29907      4.76942      4.00000        -0.070865     -0.080249      0.000000
      3.69990      3.99997      4.00000         0.141730      0.000000      0.000000
 -----------------------------------------------------------------------------------
    total drift:                                0.002301      0.035823     -0.000000


--------------------------------------------------------------------------------------------------------



  FREE ENERGIE OF THE ION-ELECTRON SYSTEM (eV)
  ---------------------------------------------------
  free  energy   TOTEN  =       -14.22640080 eV

  energy  without entropy=      -14.22640080  energy(sigma->0) =      -14.22640080
 
 d Force =-0.2294606E-03[-0.709E-03, 0.250E-03]  d Energy =-0.2263633E-03-0.310E-05
 d Force = 0.6042159E+00[ 0.602E+00, 0.606E+00]  d Ewald  = 0.6042135E+00 0.238E-05


--------------------------------------------------------------------------------------------------------


    POTLOK:  cpu time    0.2133: real time    0.2134


--------------------------------------------------------------------------------------------------------


 stress matrix after NEB project (eV)
     -0.90685      0.00000      0.00000
      0.00000     -0.83214      0.00000
      0.00000      0.00000     -0.88419
  FORCES: max atom, RMS     0.141730    0.119737
  FORCE total and by dimension    0.207390    0.141730
  Stress total and by dimension    1.515465    0.906852
 Quasi-Newton relaxation of ions (Broydens 2nd method)
  g(Force)  = 0.207E-02   g(Stress)= 0.000E+00

 retain information from N=  1 steps
 eigenvalues of (default step * inverse Hessian matrix)
  average eigenvalue of G=   0.2562
 eigenvalue spectrum of G is  0.2562


--------------------------------------------------------------------------------------------------------


    WAVPRE:  cpu time    0.1223: real time    0.1223
 FEWALD executed in parallel
    FEWALD:  cpu time    0.0003: real time    0.0003
    ORTHCH:  cpu time    0.0054: real time    0.0054
     LOOP+:  cpu time    1.5536: real time    1.5583


----------------------------------------- Iteration    3(   1)  ---------------------------------------


    POTLOK:  cpu time    0.2660: real time    0.2660
    SETDIJ:  cpu time    0.0038: real time    0.0038
     EDDAV:  cpu time    0.0791: real time    0.0791
       DOS:  cpu time    0.0001: real time    0.0001
    CHARGE:  cpu time    0.0204: real time    0.0204
    MIXING:  cpu time    0.0168: real time    0.0168
    --------------------------------------------
      LOOP:  cpu time    0.3871: real time    0.3871

 eigenvalue-minimisations  :    16
 total energy-change (2. order) :-0.2280272E-03  (-0.2240978E-02)
 number of electron       8.0000121 magnetization 
 augmentation part        0.6879238 magnetization 

 Broyden mixing:
  rms(total) = 0.51315E-02    rms(broyden)= 0.51222E-02
  rms(prec ) = 0.68929E-02
  weight for this iteration     100.00

 Free energy of the ion-electron system (eV)
  ---------------------------------------------------
  alpha Z        PSCENC =         0.43799080
  Ewald energy   TEWEN  =        24.38497751
  -Hartree energ DENC   =      -419.80175967
  -exchange      EXHF   =         0.00000000
  -V(xc)+E(xc)   XCENC  =        34.00637768
  PAW double counting   =       558.57706858     -560.63252072
  entropy T*S    EENTRO =        -0.00000000
  eigenvalues    EBANDS =      -108.41928166
  atomic energy  EATOM  =       457.22046137
  Solvation  Ediel_sol  =         0.00000000
  ---------------------------------------------------
  free energy    TOTEN  =       -14.22668612 eV

  energy without entropy =      -14.22668612  energy(sigma->0) =      -14.22668612


--------------------------------------------------------------------------------------------------------




----------------------------------------- Iteration    3(   2)  ---------------------------------------


    POTLOK:  cpu time    0.2666: real time    0.2666
    SETDIJ:  cpu time    0.0030: real time    0.0030
     EDDAV:  cpu time    0.0901: real time    0.0901
       DOS:  cpu time    0.0001: real time    0.0001
    --------------------------------------------
      LOOP:  cpu time    0.3609: real time    0.3619

 eigenvalue-minimisations  :    24
 total energy-change (2. order) : 0.9209799E-05  (-0.6595224E-04)
 number of electron       8.0000121 magnetization 
 augmentation part        0.6879238 magnetization 

 Free energy of the ion-electron system (eV)
  ---------------------------------------------------
  alpha Z        PSCENC =         0.43799080
  Ewald energy   TEWEN  =        24.38497751
  -Hartree energ DENC   =      -419.92355618
  -exchange      EXHF   =         0.00000000
  -V(xc)+E(xc)   XCENC  =        34.01328646
  PAW double counting   =       559.05277172     -561.10980616
  entropy T*S    EENTRO =        -0.00000000
  eigenvalues    EBANDS =      -108.30280242
  atomic energy  EATOM  =       457.22046137
  Solvation  Ediel_sol  =         0.00000000
  ---------------------------------------------------
  free energy    TOTEN  =       -14.22667691 eV

  energy without entropy =      -14.22667691  energy(sigma->0) =      -14.22667691


--------------------------------------------------------------------------------------------------------




 average (electrostatic) potential at core
  the test charge radii are     0.5201  0.7215
  (the norm of the test charge is              1.0000)
       1 -44.4944       2 -44.4910       3 -80.4602
 
 
 
 E-fermi :  -6.0378     XC(G=0):  -0.9836     alpha+bet : -0.2541


 k-point     1 :       0.0000    0.0000    0.0000
  band No.  band energies     occupation 
      1     -25.1195      2.00000
      2     -12.9093      2.00000
      3      -9.0970      2.00000
      4      -7.0256      2.00000
      5      -1.0747      0.00000
      6       1.1266      0.00000
      7       1.2134      0.00000
      8       1.7312      0.00000


--------------------------------------------------------------------------------------------------------


 soft charge-density along one line, spin component           1
         0         1         2         3         4         5         6         7         8         9
 total charge-density along one line
 
 pseudopotential strength for first ion, spin component:           1
 -2.382  -4.112  -0.002  -0.000   0.002
 -4.112  -7.014  -0.007  -0.000   0.005
 -0.002  -0.007  -0.318  -0.000  -0.004
 -0.000  -0.000  -0.000  -0.325   0.000
  0.002   0.005  -0.004   0.000  -0.321
 total augmentation occupancy for first ion, spin component:           1
  4.026  -0.895   0.576   0.000  -0.433
 -0.895   0.244  -0.123   0.000   0.098
  0.576  -0.123   0.089   0.000  -0.051
  0.000   0.000   0.000   0.038   0.000
 -0.433   0.098  -0.051   0.000   0.064


------------------------ aborting loop because EDIFF is reached ----------------------------------------


    CHARGE:  cpu time    0.0167: real time    0.0167
    FORLOC:  cpu time    0.0195: real time    0.0195
    FORNL :  cpu time    0.0168: real time    0.0168
    STRESS:  cpu time    0.0765: real time    0.0765
    FORCOR:  cpu time    0.2322: real time    0.2322
    FORHAR:  cpu time    0.0679: real time    0.0679
    MIXING:  cpu time    0.0199: real time    0.0199
    OFIELD:  cpu time    0.0001: real time    0.0001

  FORCE on cell =-STRESS in cart. coord.  units (eV):
  Direction    XX          YY          ZZ          XY          YZ          ZX
  --------------------------------------------------------------------------------------
  Alpha Z     0.43799     0.43799     0.43799
  Ewald      12.55056    66.70518   -54.87080    -0.00266    -0.00000    -0.00000
  Hartree   140.97271   150.33114   128.64619    -0.00003    -0.00000    -0.00000
  E(xc)     -36.11291   -35.91559   -36.40920    -0.00001    -0.00000     0.00000
  Local    -242.92579  -291.34636  -183.83989     0.00108    -0.00000    -0.00000
  n-local   -31.28570   -30.42761   -31.18084     0.00018    -0.00000     0.00003
  augment     6.72062     5.76711     8.13537     0.00007     0.00000    -0.00000
  Kinetic   148.84752   133.75159   168.23729     0.00104    -0.00000    -0.00005
  Fock        0.00000     0.00000     0.00000     0.00000     0.00000     0.00000
  -------------------------------------------------------------------------------------
  Total      -0.79500    -0.69655    -0.84390     0.00000     0.00000     0.00000
  in kB      -2.48775    -2.17968    -2.64076     0.00000     0.00000     0.00000
  external pressure =       -2.44 kB  Pullay stress =        0.00 kB


 VOLUME and BASIS-vectors are now :
 -----------------------------------------------------------------------------
  energy-cutoff  :      400.00
  volume of cell :      512.00
      direct lattice vectors                 reciprocal lattice vectors
     8.000000000  0.000000000  0.000000000     0.125000000  0.000000000  0.000000000
     0.000000000  8.000000000  0.000000000     0.000000000  0.125000000  0.000000000
     0.000000000  0.000000000  8.000000000     0.000000000  0.000000000  0.125000000

  length of vectors
     8.000000000  8.000000000  8.000000000     0.125000000  0.125000000  0.125000000


 FORCES acting on ions
    electron-ion (+dipol)            ewald-force                    non-local-force                 convergence-correction
 -----------------------------------------------------------------------------------------------
   -.507E+02 0.708E+02 -.184E-06   0.556E+02 -.775E+02 -.847E-17   -.484E+01 0.670E+01 0.000E+00   -.107E-02 -.364E-02 -.196E-12
   -.507E+02 -.708E+02 0.195E-06   0.556E+02 0.775E+02 -.144E-16   -.484E+01 -.670E+01 0.000E+00   -.107E-02 0.364E-02 -.195E-12
   0.622E+02 0.354E-01 0.175E-05   -.111E+03 0.445E-02 0.305E-16   0.491E+02 0.000E+00 0.000E+00   -.826E-01 0.243E-06 -.338E-11
 -----------------------------------------------------------------------------------------------
   -.393E+02 0.358E-01 0.176E-05   0.000E+00 -.564E-16 0.767E-17   0.394E+02 0.000E+00 0.000E+00   -.847E-01 0.289E-06 -.378E-11
 
 
 POSITION                                       TOTAL-FORCE (eV/Angst)
 -----------------------------------------------------------------------------------
      4.29820      3.23157      4.00000        -0.003374      0.001366      0.000000
      4.29820      4.76843      4.00000        -0.003374     -0.001366      0.000000
      3.70165      3.99997      4.00000         0.006749      0.000000      0.000000
 -----------------------------------------------------------------------------------
    total drift:                                0.004703      0.035827      0.000002


--------------------------------------------------------------------------------------------------------



  FREE ENERGIE OF THE ION-ELECTRON SYSTEM (eV)
  ---------------------------------------------------
  free  energy   TOTEN  =       -14.22667691 eV

  energy  without entropy=      -14.22667691  energy(sigma->0) =      -14.22667691
 
 d Force = 0.2760338E-03[ 0.204E-04, 0.532E-03]  d Energy = 0.2761123E-03-0.784E-07
 d Force =-0.4448530E+00[-0.446E+00,-0.444E+00]  d Ewald  =-0.4448524E+00-0.596E-06


--------------------------------------------------------------------------------------------------------


    POTLOK:  cpu time    0.3918: real time    0.3919


--------------------------------------------------------------------------------------------------------


 stress matrix after NEB project (eV)
     -0.79500      0.00000      0.00000
      0.00000     -0.69655      0.00000
      0.00000      0.00000     -0.84390
  FORCES: max atom, RMS     0.006749    0.004901
  FORCE total and by dimension    0.008488    0.006749
  Stress total and by dimension    1.352540    0.843896
 Quasi-Newton relaxation of ions (Broydens 2nd method)
  g(Force)  = 0.348E-05   g(Stress)= 0.000E+00

 retain information from N=  1 steps
 eigenvalues of (default step * inverse Hessian matrix)
  average eigenvalue of G=   0.2664
 eigenvalue spectrum of G is  0.2664


--------------------------------------------------------------------------------------------------------


  
 reached required accuracy - stopping structural energy minimisation
 writing wavefunctions
     LOOP+:  cpu time    1.6114: real time    1.6170
    4ORBIT:  cpu time    0.0001: real time    0.0001

 total amount of memory used by VASP on root node    82475. kBytes
========================================================================

   base      :      30000. kBytes
   nonl-proj :       1639. kBytes
   fftplans  :      17864. kBytes
   grid      :      31769. kBytes
   one-center:          9. kBytes
   wavefun   :       1194. kBytes
 
  
  
 General timing and accounting informations for this job:
 ========================================================
  
                  Total CPU time used (sec):       12.790
                            User time (sec):       11.105
                          System time (sec):        1.685
                         Elapsed time (sec):       13.713
  
                   Maximum memory used (kb):      166032.
                   Average memory used (kb):           0.
  
                          Minor page faults:        71669
                          Major page faults:          372
                 Voluntary context switches:         1257
