<?xml version="1.0" encoding="ISO-8859-1"?>
<modeling>
 <generator>
  <i name="program" type="string">vasp </i>
  <i name="version" type="string">5.4.1  </i>
  <i name="subversion" type="string">05Feb16 (build Apr 25 2018 11:37:45) complex                          parallel </i>
  <i name="platform" type="string">LinuxIFC </i>
  <i name="date" type="string">2021 03 09 </i>
  <i name="time" type="string">14:18:48 </i>
 </generator>
 <incar>
  <i type="string" name="PREC">normal</i>
  <i type="int" name="IBRION">     1</i>
  <i name="EDIFF">      0.00010000</i>
  <i name="EDIFFG">     -0.03000000</i>
  <i type="int" name="NSW">   500</i>
  <i name="ENCUT">    400.00000000</i>
  <i type="int" name="ISMEAR">     0</i>
  <v type="int" name="KPOINT_BSE">    -1     0     0     0</v>
  <i type="string" name="GGA"> PE</i>
 </incar>
 <kpoints>
  <generation param="Monkhorst-Pack">
   <v type="int" name="divisions">       1        1        1 </v>
   <v name="usershift">      0.00000000       0.00000000       0.00000000 </v>
   <v name="genvec1">      1.00000000       0.00000000       0.00000000 </v>
   <v name="genvec2">      0.00000000       1.00000000       0.00000000 </v>
   <v name="genvec3">      0.00000000       0.00000000       1.00000000 </v>
   <v name="shift">      0.00000000       0.00000000       0.00000000 </v>
  </generation>
  <varray name="kpointlist" >
   <v>       0.00000000       0.00000000       0.00000000 </v>
  </varray>
  <varray name="weights" >
   <v>       1.00000000 </v>
  </varray>
 </kpoints>
 <parameters>
  <separator name="general" >
   <i type="string" name="SYSTEM">unknown system</i>
   <i type="logical" name="LCOMPAT"> F  </i>
  </separator>
  <separator name="electronic" >
   <i type="string" name="PREC">normal</i>
   <i name="ENMAX">    400.00000000</i>
   <i name="ENAUG">    605.39200000</i>
   <i name="EDIFF">      0.00010000</i>
   <i type="int" name="IALGO">    38</i>
   <i type="int" name="IWAVPR">    11</i>
   <i type="int" name="NBANDS">     8</i>
   <i name="NELECT">      8.00000000</i>
   <i type="int" name="TURBO">     0</i>
   <i type="int" name="IRESTART">     0</i>
   <i type="int" name="NREBOOT">     0</i>
   <i type="int" name="NMIN">     0</i>
   <i name="EREF">      0.00000000</i>
   <separator name="electronic smearing" >
    <i type="int" name="ISMEAR">     0</i>
    <i name="SIGMA">      0.20000000</i>
    <i name="KSPACING">      0.50000000</i>
    <i type="logical" name="KGAMMA"> T  </i>
   </separator>
   <separator name="electronic projectors" >
    <i type="logical" name="LREAL"> F  </i>
    <v name="ROPT">      0.00000000      0.00000000</v>
    <i type="int" name="LMAXPAW">  -100</i>
    <i type="int" name="LMAXMIX">     2</i>
    <i type="logical" name="NLSPLINE"> F  </i>
   </separator>
   <separator name="electronic startup" >
    <i type="int" name="ISTART">     0</i>
    <i type="int" name="ICHARG">     2</i>
    <i type="int" name="INIWAV">     1</i>
   </separator>
   <separator name="electronic spin" >
    <i type="int" name="ISPIN">     1</i>
    <i type="logical" name="LNONCOLLINEAR"> F  </i>
    <v name="MAGMOM">      1.00000000      1.00000000      1.00000000</v>
    <i name="NUPDOWN">     -1.00000000</i>
    <i type="logical" name="LSORBIT"> F  </i>
    <v name="SAXIS">      0.00000000      0.00000000      1.00000000</v>
    <i type="logical" name="LSPIRAL"> F  </i>
    <v name="QSPIRAL">      0.00000000      0.00000000      0.00000000</v>
    <i type="logical" name="LZEROZ"> F  </i>
   </separator>
   <separator name="electronic exchange-correlation" >
    <i type="logical" name="LASPH"> F  </i>
    <i type="logical" name="LMETAGGA"> F  </i>
   </separator>
   <separator name="electronic convergence" >
    <i type="int" name="NELM">    60</i>
    <i type="int" name="NELMDL">    -5</i>
    <i type="int" name="NELMIN">     2</i>
    <i name="ENINI">    400.00000000</i>
    <separator name="electronic convergence detail" >
     <i type="logical" name="LDIAG"> T  </i>
     <i type="logical" name="LSUBROT"> F  </i>
     <i name="WEIMIN">      0.00100000</i>
     <i name="EBREAK">      0.00000313</i>
     <i name="DEPER">      0.30000000</i>
     <i type="int" name="NRMM">     4</i>
     <i name="TIME">      0.40000000</i>
    </separator>
   </separator>
   <separator name="electronic mixer" >
    <i name="AMIX">      0.40000000</i>
    <i name="BMIX">      1.00000000</i>
    <i name="AMIN">      0.10000000</i>
    <i name="AMIX_MAG">      1.60000000</i>
    <i name="BMIX_MAG">      1.00000000</i>
    <separator name="electronic mixer details" >
     <i type="int" name="IMIX">     4</i>
     <i type="logical" name="MIXFIRST"> F  </i>
     <i type="int" name="MAXMIX">   -45</i>
     <i name="WC">    100.00000000</i>
     <i type="int" name="INIMIX">     1</i>
     <i type="int" name="MIXPRE">     1</i>
     <i type="int" name="MREMOVE">     5</i>
    </separator>
   </separator>
   <separator name="electronic dipolcorrection" >
    <i type="logical" name="LDIPOL"> F  </i>
    <i type="logical" name="LMONO"> F  </i>
    <i type="int" name="IDIPOL">     0</i>
    <i name="EPSILON">      1.00000000</i>
    <v name="DIPOL">   -100.00000000   -100.00000000   -100.00000000</v>
    <i name="EFIELD">      0.00000000</i>
   </separator>
  </separator>
  <separator name="grids" >
   <i type="int" name="NGX">    40</i>
   <i type="int" name="NGY">    40</i>
   <i type="int" name="NGZ">    40</i>
   <i type="int" name="NGXF">    80</i>
   <i type="int" name="NGYF">    80</i>
   <i type="int" name="NGZF">    80</i>
   <i type="logical" name="ADDGRID"> F  </i>
  </separator>
  <separator name="ionic" >
   <i type="int" name="NSW">   500</i>
   <i type="int" name="IBRION">     1</i>
   <i type="int" name="ISIF">     2</i>
   <i name="PSTRESS">      0.00000000</i>
   <i name="EDIFFG">     -0.03000000</i>
   <i type="int" name="NFREE">     0</i>
   <i name="POTIM">      0.50000000</i>
   <i name="SMASS">     -3.00000000</i>
   <i name="SCALEE">      1.00000000</i>
  </separator>
  <separator name="ionic md" >
   <i name="TEBEG">      0.00010000</i>
   <i name="TEEND">      0.00010000</i>
   <i type="int" name="NBLOCK">     1</i>
   <i type="int" name="KBLOCK">   500</i>
   <i type="int" name="NPACO">   256</i>
   <i name="APACO">     16.00000000</i>
  </separator>
  <separator name="symmetry" >
   <i type="int" name="ISYM">     2</i>
   <i name="SYMPREC">      0.00001000</i>
  </separator>
  <separator name="dos" >
   <i type="logical" name="LORBIT"> F  </i>
   <v name="RWIGS">     -1.00000000     -1.00000000</v>
   <i type="int" name="NEDOS">   301</i>
   <i name="EMIN">     10.00000000</i>
   <i name="EMAX">    -10.00000000</i>
   <i name="EFERMI">      0.00000000</i>
  </separator>
  <separator name="writing" >
   <i type="int" name="NWRITE">     2</i>
   <i type="logical" name="LWAVE"> T  </i>
   <i type="logical" name="LCHARG"> T  </i>
   <i type="logical" name="LPARD"> F  </i>
   <i type="logical" name="LVTOT"> F  </i>
   <i type="logical" name="LVHAR"> F  </i>
   <i type="logical" name="LELF"> F  </i>
   <i type="logical" name="LOPTICS"> F  </i>
   <v name="STM">      0.00000000      0.00000000      0.00000000      0.00000000      0.00000000      0.00000000      0.00000000</v>
  </separator>
  <separator name="performance" >
   <i type="int" name="NPAR">     1</i>
   <i type="int" name="NSIM">     4</i>
   <i type="int" name="NBLK">    -1</i>
   <i type="logical" name="LPLANE"> T  </i>
   <i type="logical" name="LSCALAPACK"> F  </i>
   <i type="logical" name="LSCAAWARE"> F  </i>
   <i type="logical" name="LSCALU"> F  </i>
   <i type="logical" name="LASYNC"> F  </i>
   <i type="logical" name="LORBITALREAL"> F  </i>
  </separator>
  <separator name="miscellaneous" >
   <i type="int" name="IDIOT">     3</i>
   <i type="logical" name="LMUSIC"> F  </i>
   <v name="POMASS">      1.00000000     16.00000000</v>
   <v name="DARWINR">      0.00000000      0.00000000</v>
   <v name="DARWINV">      1.00000000      1.00000000</v>
   <i type="logical" name="LCORR"> T  </i>
  </separator>
  <i type="logical" name="GGA_COMPAT"> T  </i>
  <i type="logical" name="LBERRY"> F  </i>
  <i type="int" name="ICORELEVEL">     0</i>
  <i type="logical" name="LDAU"> F  </i>
  <i type="int" name="I_CONSTRAINED_M">     0</i>
  <separator name="electronic exchange-correlation" >
   <i type="string" name="GGA">PE</i>
   <i type="int" name="VOSKOWN">     0</i>
   <i type="logical" name="LHFCALC"> F  </i>
   <i type="string" name="PRECFOCK"></i>
   <i type="logical" name="LSYMGRAD"> F  </i>
   <i type="logical" name="LHFONE"> F  </i>
   <i type="logical" name="LRHFCALC"> F  </i>
   <i type="logical" name="LTHOMAS"> F  </i>
   <i type="logical" name="LMODELHF"> F  </i>
   <i name="ENCUT4O">     -1.00000000</i>
   <i type="int" name="EXXOEP">     0</i>
   <i type="int" name="FOURORBIT">     0</i>
   <i name="AEXX">      0.00000000</i>
   <i name="HFALPHA">      0.00000000</i>
   <i name="MCALPHA">      0.00000000</i>
   <i name="ALDAX">      1.00000000</i>
   <i name="AGGAX">      1.00000000</i>
   <i name="ALDAC">      1.00000000</i>
   <i name="AGGAC">      1.00000000</i>
   <i type="int" name="NKREDX">     1</i>
   <i type="int" name="NKREDY">     1</i>
   <i type="int" name="NKREDZ">     1</i>
   <i type="logical" name="SHIFTRED"> F  </i>
   <i type="logical" name="ODDONLY"> F  </i>
   <i type="logical" name="EVENONLY"> F  </i>
   <i type="int" name="LMAXFOCK">     0</i>
   <i type="int" name="NMAXFOCKAE">     0</i>
   <i type="logical" name="LFOCKAEDFT"> F  </i>
   <i name="HFSCREEN">      0.00000000</i>
   <i name="HFSCREENC">      0.00000000</i>
   <i type="int" name="NBANDSGWLOW">     0</i>
  </separator>
  <separator name="vdW DFT" >
   <i type="logical" name="LUSE_VDW"> F  </i>
   <i name="Zab_VDW">     -0.84910000</i>
   <i name="PARAM1">      0.12340000</i>
   <i name="PARAM2">      1.00000000</i>
   <i name="PARAM3">      0.00000000</i>
  </separator>
  <separator name="model GW" >
   <i type="int" name="MODEL_GW">     0</i>
   <i name="MODEL_EPS0">    102.40000000</i>
   <i name="MODEL_ALPHA">      1.00000000</i>
  </separator>
  <separator name="linear response parameters" >
   <i type="logical" name="LEPSILON"> F  </i>
   <i type="logical" name="LRPA"> F  </i>
   <i type="logical" name="LNABLA"> F  </i>
   <i type="logical" name="LVEL"> F  </i>
   <i type="int" name="KINTER">     0</i>
   <i name="CSHIFT">      0.10000000</i>
   <i name="OMEGAMAX">     -1.00000000</i>
   <i name="DEG_THRESHOLD">      0.00200000</i>
  </separator>
  <separator name="orbital magnetization" >
   <i type="logical" name="NUCIND"> F  </i>
   <v name="MAGPOS">      0.00000000      0.00000000      0.00000000</v>
   <i type="logical" name="LNICSALL"> T  </i>
   <i type="logical" name="ORBITALMAG"> F  </i>
   <i type="logical" name="LMAGBLOCH"> F  </i>
   <i type="logical" name="LCHIMAG"> F  </i>
   <i type="logical" name="LGAUGE"> T  </i>
   <i type="int" name="MAGATOM">     0</i>
   <v name="MAGDIPOL">      0.00000000      0.00000000      0.00000000</v>
   <v name="AVECCONST">      0.00000000      0.00000000      0.00000000</v>
  </separator>
  <separator name="response functions" >
   <i type="logical" name="LADDER"> F  </i>
   <i type="logical" name="LFXC"> F  </i>
   <i type="logical" name="LHARTREE"> T  </i>
   <i type="int" name="IBSE">     0</i>
   <v type="int" name="KPOINT">    -1     0     0     0</v>
   <i type="logical" name="LTCTE"> F  </i>
   <i type="logical" name="LTETE"> F  </i>
   <i type="logical" name="LTRIPLET"> F  </i>
   <i type="logical" name="LFXCEPS"> F  </i>
   <i type="logical" name="LFXHEG"> F  </i>
   <i type="int" name="NATURALO">     0</i>
   <i type="logical" name="L2ORDER"> F  </i>
   <i type="logical" name="LUSEW"> F  </i>
   <i name="ENCUTGW">     -2.00000000</i>
   <i name="ENCUTGWSOFT">     -2.00000000</i>
   <i name="ENCUTLF">     -1.00000000</i>
   <i type="int" name="LMAXMP2">    -1</i>
   <i name="SCISSOR">      0.00000000</i>
   <i type="int" name="NOMEGA">     0</i>
   <i type="int" name="NOMEGAR">     0</i>
   <i type="int" name="NBANDSGW">    -1</i>
   <i type="int" name="NBANDSO">    -1</i>
   <i type="int" name="NBANDSV">    -1</i>
   <i type="int" name="NELM">     1</i>
   <i type="int" name="NELMHF">     1</i>
   <i type="int" name="DIM">     3</i>
   <i type="int" name="ANTIRES">     0</i>
   <i name="OMEGAMAX">    -30.00000000</i>
   <i name="OMEGAMIN">    -30.00000000</i>
   <i name="OMEGATL">   -200.00000000</i>
   <i type="int" name="OMEGAGRID">     0</i>
   <i name="CSHIFT">     -0.10000000</i>
   <i type="logical" name="SELFENERGY"> F  </i>
   <i type="logical" name="LSPECTRAL"> F  </i>
   <i type="logical" name="LSPECTRALGW"> F  </i>
   <i type="logical" name="LSINGLES"> F  </i>
   <i type="logical" name="LFERMIGW"> F  </i>
   <i type="logical" name="ODDONLYGW"> F  </i>
   <i type="logical" name="EVENONLYGW"> F  </i>
   <i type="int" name="NKREDLFX">     1</i>
   <i type="int" name="NKREDLFY">     1</i>
   <i type="int" name="NKREDLFZ">     1</i>
   <i type="int" name="MAXMEM">  1800</i>
   <i type="int" name="TELESCOPE">     0</i>
   <i type="int" name="TAUPAR">     1</i>
   <i type="int" name="OMEGAPAR">    -1</i>
   <i name="LAMBDA">      1.00000000</i>
  </separator>
  <separator name="External order field" >
   <i name="OFIELD_KAPPA">      0.00000000</i>
   <v name="OFIELD_K">      0.00000000      0.00000000      0.00000000</v>
   <i name="OFIELD_Q6_NEAR">      0.00000000</i>
   <i name="OFIELD_Q6_FAR">      0.00000000</i>
   <i name="OFIELD_A">      0.00000000</i>
  </separator>
 </parameters>
 <atominfo>
  <atoms>       3 </atoms>
  <types>       2 </types>
  <array name="atoms" >
   <dimension dim="1">ion</dimension>
   <field type="string">element</field>
   <field type="int">atomtype</field>
   <set>
    <rc><c>H </c><c>   1</c></rc>
    <rc><c>H </c><c>   1</c></rc>
    <rc><c>O </c><c>   2</c></rc>
   </set>
  </array>
  <array name="atomtypes" >
   <dimension dim="1">type</dimension>
   <field type="int">atomspertype</field>
   <field type="string">element</field>
   <field>mass</field>
   <field>valence</field>
   <field type="string">pseudopotential</field>
   <set>
    <rc><c>   2</c><c>H </c><c>      1.00000000</c><c>      1.00000000</c><c>  PAW_PBE H 15Jun2001                   </c></rc>
    <rc><c>   1</c><c>O </c><c>     16.00000000</c><c>      6.00000000</c><c>  PAW_PBE O 08Apr2002                   </c></rc>
   </set>
  </array>
 </atominfo>
 <structure name="initialpos" >
  <crystal>
   <varray name="basis" >
    <v>       8.00000000       0.00000000       0.00000000 </v>
    <v>       0.00000000       8.00000000       0.00000000 </v>
    <v>       0.00000000       0.00000000       8.00000000 </v>
   </varray>
   <i name="volume">    512.00000000 </i>
   <varray name="rec_basis" >
    <v>       0.12500000       0.00000000       0.00000000 </v>
    <v>       0.00000000       0.12500000       0.00000000 </v>
    <v>       0.00000000       0.00000000       0.12500000 </v>
   </varray>
  </crystal>
  <varray name="positions" >
   <v>       0.53725507       0.40403328       0.50000000 </v>
   <v>       0.53725507       0.59596672       0.50000000 </v>
   <v>       0.46274493       0.49999663       0.50000000 </v>
  </varray>
 </structure>
 <calculation>
  <scstep>
   <time name="dav">    0.18    0.39</time>
   <time name="total">    0.57    0.85</time>
   <energy>
    <i name="alphaZ">      0.43799080 </i>
    <i name="ewald">     24.54433861 </i>
    <i name="hartreedc">   -385.76695088 </i>
    <i name="XCdc">     32.18130007 </i>
    <i name="pawpsdc">    350.81753176 </i>
    <i name="pawaedc">   -352.63395800 </i>
    <i name="eentropy">     -0.00029449 </i>
    <i name="bandstr">    -84.81842776 </i>
    <i name="atom">    457.22046137 </i>
    <i name="e_fr_energy">     41.98199147 </i>
    <i name="e_wo_entrp">     41.98228597 </i>
    <i name="e_0_energy">     41.98213872 </i>
   </energy>
  </scstep>
  <scstep>
   <time name="dav">    0.13    0.13</time>
   <time name="total">    0.13    0.13</time>
   <energy>
    <i name="e_fr_energy">     -9.95752566 </i>
    <i name="e_wo_entrp">     -9.95752566 </i>
    <i name="e_0_energy">     -9.95752566 </i>
   </energy>
  </scstep>
  <scstep>
   <time name="dav">    0.07    0.07</time>
   <time name="total">    0.08    0.08</time>
   <energy>
    <i name="e_fr_energy">    -16.17640454 </i>
    <i name="e_wo_entrp">    -16.17640454 </i>
    <i name="e_0_energy">    -16.17640454 </i>
   </energy>
  </scstep>
  <scstep>
   <time name="dav">    0.13    0.13</time>
   <time name="total">    0.13    0.13</time>
   <energy>
    <i name="e_fr_energy">    -16.25106136 </i>
    <i name="e_wo_entrp">    -16.25106136 </i>
    <i name="e_0_energy">    -16.25106136 </i>
   </energy>
  </scstep>
  <scstep>
   <time name="dav">    0.16    0.16</time>
   <time name="total">    0.21    0.22</time>
   <energy>
    <i name="e_fr_energy">    -16.25107408 </i>
    <i name="e_wo_entrp">    -16.25107408 </i>
    <i name="e_0_energy">    -16.25107408 </i>
   </energy>
  </scstep>
  <scstep>
   <time name="dav">    0.08    0.08</time>
   <time name="total">    0.42    0.44</time>
   <energy>
    <i name="e_fr_energy">    -14.39161858 </i>
    <i name="e_wo_entrp">    -14.39161858 </i>
    <i name="e_0_energy">    -14.39161858 </i>
   </energy>
  </scstep>
  <scstep>
   <time name="dav">    0.13    0.13</time>
   <time name="total">    0.46    0.46</time>
   <energy>
    <i name="e_fr_energy">    -14.28408902 </i>
    <i name="e_wo_entrp">    -14.28408902 </i>
    <i name="e_0_energy">    -14.28408902 </i>
   </energy>
  </scstep>
  <scstep>
   <time name="dav">    0.08    0.08</time>
   <time name="total">    0.39    0.39</time>
   <energy>
    <i name="e_fr_energy">    -14.20403210 </i>
    <i name="e_wo_entrp">    -14.20403210 </i>
    <i name="e_0_energy">    -14.20403210 </i>
   </energy>
  </scstep>
  <scstep>
   <time name="dav">    0.13    0.13</time>
   <time name="total">    0.47    0.47</time>
   <energy>
    <i name="e_fr_energy">    -14.20822768 </i>
    <i name="e_wo_entrp">    -14.20822768 </i>
    <i name="e_0_energy">    -14.20822768 </i>
   </energy>
  </scstep>
  <scstep>
   <time name="dav">    0.07    0.07</time>
   <time name="total">    0.37    0.37</time>
   <energy>
    <i name="e_fr_energy">    -14.21712681 </i>
    <i name="e_wo_entrp">    -14.21712681 </i>
    <i name="e_0_energy">    -14.21712681 </i>
   </energy>
  </scstep>
  <scstep>
   <time name="dav">    0.07    0.07</time>
   <time name="total">    0.34    0.34</time>
   <energy>
    <i name="e_fr_energy">    -14.22143829 </i>
    <i name="e_wo_entrp">    -14.22143829 </i>
    <i name="e_0_energy">    -14.22143829 </i>
   </energy>
  </scstep>
  <scstep>
   <time name="dav">    0.12    0.12</time>
   <time name="total">    0.38    0.39</time>
   <energy>
    <i name="e_fr_energy">    -14.22535337 </i>
    <i name="e_wo_entrp">    -14.22535337 </i>
    <i name="e_0_energy">    -14.22535337 </i>
   </energy>
  </scstep>
  <scstep>
   <time name="dav">    0.10    0.10</time>
   <time name="total">    0.36    0.36</time>
   <energy>
    <i name="e_fr_energy">    -14.22616455 </i>
    <i name="e_wo_entrp">    -14.22616455 </i>
    <i name="e_0_energy">    -14.22616455 </i>
   </energy>
  </scstep>
  <scstep>
   <time name="dav">    0.12    0.12</time>
   <time name="total">    0.39    0.39</time>
   <energy>
    <i name="e_fr_energy">    -14.22654371 </i>
    <i name="e_wo_entrp">    -14.22654371 </i>
    <i name="e_0_energy">    -14.22654371 </i>
   </energy>
  </scstep>
  <scstep>
   <time name="dav">    0.12    0.12</time>
   <time name="total">    0.35    0.35</time>
   <energy>
    <i name="alphaZ">      0.43799080 </i>
    <i name="ewald">     24.54433861 </i>
    <i name="hartreedc">   -420.06349769 </i>
    <i name="XCdc">     34.02055908 </i>
    <i name="pawpsdc">    560.01837472 </i>
    <i name="pawaedc">   -562.07739294 </i>
    <i name="eentropy">     -0.00000000 </i>
    <i name="bandstr">   -108.32746111 </i>
    <i name="atom">    457.22046137 </i>
    <i name="e_fr_energy">    -14.22662716 </i>
    <i name="e_wo_entrp">    -14.22662716 </i>
    <i name="e_0_energy">    -14.22662716 </i>
   </energy>
  </scstep>
  <structure>
   <crystal>
    <varray name="basis" >
     <v>       8.00000000       0.00000000       0.00000000 </v>
     <v>       0.00000000       8.00000000       0.00000000 </v>
     <v>       0.00000000       0.00000000       8.00000000 </v>
    </varray>
    <i name="volume">    512.00000000 </i>
    <varray name="rec_basis" >
     <v>       0.12500000       0.00000000       0.00000000 </v>
     <v>       0.00000000       0.12500000       0.00000000 </v>
     <v>       0.00000000       0.00000000       0.12500000 </v>
    </varray>
   </crystal>
   <varray name="positions" >
    <v>       0.53725507       0.40403328       0.50000000 </v>
    <v>       0.53725507       0.59596672       0.50000000 </v>
    <v>       0.46274493       0.49999663       0.50000000 </v>
   </varray>
  </structure>
  <varray name="forces" >
   <v>       0.02137165      -0.03494288       0.00000000 </v>
   <v>       0.02137165       0.03494288       0.00000000 </v>
   <v>      -0.04274329       0.00000000       0.00000000 </v>
  </varray>
  <varray name="stress" >
   <v>      -2.43619815       0.00000000       0.00000000 </v>
   <v>       0.00000000      -2.02563861       0.00000000 </v>
   <v>       0.00000000       0.00000000      -2.68293506 </v>
  </varray>
  <energy>
   <i name="e_fr_energy">    -14.22662716 </i>
   <i name="e_wo_entrp">    -14.22662716 </i>
   <i name="e_0_energy">     -0.00000000 </i>
  </energy>
  <time name="totalsc">    6.76    7.12</time>
 </calculation>
 <calculation>
  <scstep>
   <time name="dav">    0.13    0.13</time>
   <time name="total">    0.61    0.61</time>
   <energy>
    <i name="alphaZ">      0.43799080 </i>
    <i name="ewald">     23.94012508 </i>
    <i name="hartreedc">   -419.77411075 </i>
    <i name="XCdc">     34.00708520 </i>
    <i name="pawpsdc">    560.02610742 </i>
    <i name="pawaedc">   -562.08509305 </i>
    <i name="eentropy">     -0.00000000 </i>
    <i name="bandstr">   -107.99902416 </i>
    <i name="atom">    457.22046137 </i>
    <i name="e_fr_energy">    -14.22645810 </i>
    <i name="e_wo_entrp">    -14.22645810 </i>
    <i name="e_0_energy">    -14.22645810 </i>
   </energy>
  </scstep>
  <scstep>
   <time name="dav">    0.09    0.09</time>
   <time name="total">    0.46    0.46</time>
   <energy>
    <i name="alphaZ">      0.43799080 </i>
    <i name="ewald">     23.94012508 </i>
    <i name="hartreedc">   -419.60775168 </i>
    <i name="XCdc">     33.99761149 </i>
    <i name="pawpsdc">    559.04465166 </i>
    <i name="pawaedc">   -561.10090529 </i>
    <i name="eentropy">     -0.00000000 </i>
    <i name="bandstr">   -108.15858421 </i>
    <i name="atom">    457.22046137 </i>
    <i name="e_fr_energy">    -14.22640080 </i>
    <i name="e_wo_entrp">    -14.22640080 </i>
    <i name="e_0_energy">    -14.22640080 </i>
   </energy>
  </scstep>
  <structure>
   <crystal>
    <varray name="basis" >
     <v>       8.00000000       0.00000000       0.00000000 </v>
     <v>       0.00000000       8.00000000       0.00000000 </v>
     <v>       0.00000000       0.00000000       8.00000000 </v>
    </varray>
    <i name="volume">    512.00000000 </i>
    <varray name="rec_basis" >
     <v>       0.12500000       0.00000000       0.00000000 </v>
     <v>       0.00000000       0.12500000       0.00000000 </v>
     <v>       0.00000000       0.00000000       0.12500000 </v>
    </varray>
   </crystal>
   <varray name="positions" >
    <v>       0.53738395       0.40382257       0.50000000 </v>
    <v>       0.53738395       0.59617743       0.50000000 </v>
    <v>       0.46248717       0.49999663       0.50000000 </v>
   </varray>
  </structure>
  <varray name="forces" >
   <v>      -0.07086479       0.08024925       0.00000000 </v>
   <v>      -0.07086479      -0.08024925       0.00000000 </v>
   <v>       0.14172958       0.00000000       0.00000000 </v>
  </varray>
  <varray name="stress" >
   <v>      -2.83777039       0.00000000       0.00000000 </v>
   <v>       0.00000000      -2.60397444       0.00000000 </v>
   <v>       0.00000000       0.00000000      -2.76685994 </v>
  </varray>
  <energy>
   <i name="e_fr_energy">    -14.22640080 </i>
   <i name="e_wo_entrp">    -14.22640080 </i>
   <i name="e_0_energy">     -0.00000000 </i>
  </energy>
  <time name="totalsc">    2.38    2.40</time>
 </calculation>
 <calculation>
  <scstep>
   <time name="dav">    0.10    0.10</time>
   <time name="total">    0.54    0.54</time>
   <energy>
    <i name="alphaZ">      0.43799080 </i>
    <i name="ewald">     24.38497751 </i>
    <i name="hartreedc">   -419.80175967 </i>
    <i name="XCdc">     34.00637768 </i>
    <i name="pawpsdc">    558.57706858 </i>
    <i name="pawaedc">   -560.63252072 </i>
    <i name="eentropy">     -0.00000000 </i>
    <i name="bandstr">   -108.41928166 </i>
    <i name="atom">    457.22046137 </i>
    <i name="e_fr_energy">    -14.22668612 </i>
    <i name="e_wo_entrp">    -14.22668612 </i>
    <i name="e_0_energy">    -14.22668612 </i>
   </energy>
  </scstep>
  <scstep>
   <time name="dav">    0.16    0.16</time>
   <time name="total">    0.55    0.55</time>
   <energy>
    <i name="alphaZ">      0.43799080 </i>
    <i name="ewald">     24.38497751 </i>
    <i name="hartreedc">   -419.92355618 </i>
    <i name="XCdc">     34.01328646 </i>
    <i name="pawpsdc">    559.05277172 </i>
    <i name="pawaedc">   -561.10980616 </i>
    <i name="eentropy">     -0.00000000 </i>
    <i name="bandstr">   -108.30280242 </i>
    <i name="atom">    457.22046137 </i>
    <i name="e_fr_energy">    -14.22667691 </i>
    <i name="e_wo_entrp">    -14.22667691 </i>
    <i name="e_0_energy">    -14.22667691 </i>
   </energy>
  </scstep>
  <structure>
   <crystal>
    <varray name="basis" >
     <v>       8.00000000       0.00000000       0.00000000 </v>
     <v>       0.00000000       8.00000000       0.00000000 </v>
     <v>       0.00000000       0.00000000       8.00000000 </v>
    </varray>
    <i name="volume">    512.00000000 </i>
    <varray name="rec_basis" >
     <v>       0.12500000       0.00000000       0.00000000 </v>
     <v>       0.00000000       0.12500000       0.00000000 </v>
     <v>       0.00000000       0.00000000       0.12500000 </v>
    </varray>
   </crystal>
   <varray name="positions" >
    <v>       0.53727446       0.40394655       0.50000000 </v>
    <v>       0.53727446       0.59605345       0.50000000 </v>
    <v>       0.46270615       0.49999663       0.50000000 </v>
   </varray>
  </structure>
  <varray name="forces" >
   <v>      -0.00337426       0.00136604       0.00000000 </v>
   <v>      -0.00337426      -0.00136604       0.00000000 </v>
   <v>       0.00674853       0.00000000       0.00000000 </v>
  </varray>
  <varray name="stress" >
   <v>      -2.48775130       0.00000000       0.00000000 </v>
   <v>       0.00000000      -2.17967829       0.00000000 </v>
   <v>       0.00000000       0.00000000      -2.64076437 </v>
  </varray>
  <energy>
   <i name="e_fr_energy">    -14.22667691 </i>
   <i name="e_wo_entrp">    -14.22667691 </i>
   <i name="e_0_energy">     -0.00000000 </i>
  </energy>
  <time name="totalsc">    2.39    2.39</time>
  <eigenvalues>
   <array>
    <dimension dim="1">band</dimension>
    <dimension dim="2">kpoint</dimension>
    <dimension dim="3">spin</dimension>
    <field>eigene</field>
    <field>occ</field>
    <set>
     <set comment="spin 1">
      <set comment="kpoint 1">
       <r>  -25.1195    1.0000 </r>
       <r>  -12.9093    1.0000 </r>
       <r>   -9.0970    1.0000 </r>
       <r>   -7.0256    1.0000 </r>
       <r>   -1.0747    0.0000 </r>
       <r>    1.1266    0.0000 </r>
       <r>    1.2134    0.0000 </r>
       <r>    1.7312    0.0000 </r>
      </set>
     </set>
    </set>
   </array>
  </eigenvalues>
  <separator name="orbital magnetization" >
   <v name="MAGDIPOLOUT">      0.00000000      0.00000000      0.00000000</v>
  </separator>
 </calculation>
 <structure name="finalpos" >
  <crystal>
   <varray name="basis" >
    <v>       8.00000000       0.00000000       0.00000000 </v>
    <v>       0.00000000       8.00000000       0.00000000 </v>
    <v>       0.00000000       0.00000000       8.00000000 </v>
   </varray>
   <i name="volume">    512.00000000 </i>
   <varray name="rec_basis" >
    <v>       0.12500000       0.00000000       0.00000000 </v>
    <v>       0.00000000       0.12500000       0.00000000 </v>
    <v>       0.00000000       0.00000000       0.12500000 </v>
   </varray>
  </crystal>
  <varray name="positions" >
   <v>       0.53727446       0.40394655       0.50000000 </v>
   <v>       0.53727446       0.59605345       0.50000000 </v>
   <v>       0.46270615       0.49999663       0.50000000 </v>
  </varray>
 </structure>
</modeling>
