unknown system                          
           1
     8.000000    0.000000    0.000000
     0.000000    8.000000    0.000000
     0.000000    0.000000    8.000000
   H    O 
   2   1
Direct configuration=     1
   0.53725507  0.40403328  0.50000000
   0.53725507  0.59596672  0.50000000
   0.46274493  0.49999663  0.50000000
Direct configuration=     2
   0.53738395  0.40382257  0.50000000
   0.53738395  0.59617743  0.50000000
   0.46248717  0.49999663  0.50000000
Direct configuration=     3
   0.53727446  0.40394655  0.50000000
   0.53727446  0.59605345  0.50000000
   0.46270615  0.49999663  0.50000000
